8
	Energy:       0.1406434
C          1.02536        0.17111       -0.05697
C          2.00858       -0.82442        0.53478
H          1.38999        1.20630        0.11147
H          0.03273        0.05208        0.42617
H          0.92199       -0.00482       -1.14845
H          2.11163       -0.64837        1.62625
H          1.64362       -1.85949        0.36634
H          3.00145       -0.70582        0.05197
