11
	Energy:       0.9868812
C          1.03330        0.17151       -0.06031
C          2.02333       -0.82697        0.53175
C          3.40001       -0.68989       -0.11140
H          1.38546        1.21135        0.10959
H          0.04330        0.04722        0.42691
H          0.91699       -0.00097       -1.15158
H          2.11144       -0.64978        1.62536
H          1.64427       -1.85874        0.36769
H          3.33661       -0.88162       -1.20382
H          3.80508        0.33070        0.05735
H          4.09640       -1.42796        0.33940
