10
	Energy:       1.6829863
C          1.35253        1.01837       -0.56644
C          2.53586        0.65804       -0.06452
C          2.63024       -0.10214        1.19803
C          3.81372       -0.46233        1.69970
H          0.42587        0.76291       -0.06089
H          1.30518        1.57679       -1.49576
H          3.44061        0.93269       -0.60028
H          1.72557       -0.37687        1.73392
H          4.74018       -0.20669        1.19386
H          3.86150       -1.02076        2.62899
