29
	Energy:      -7.1254733
C          0.18637       -1.25599       -2.42898
C          0.59298       -2.59639       -1.83776
C          1.84298       -2.46897       -0.96724
C          2.24911       -3.82001       -0.37605
C          3.50049       -3.69395        0.49477
C          3.90737       -5.04643        1.08228
C          5.15976       -4.92294        1.95200
C          5.56758       -6.27748        2.53419
C          6.82134       -6.15721        3.40232
H         -0.70935       -1.37061       -3.04746
H          0.98332       -0.84665       -3.05798
H         -0.03611       -0.53043       -1.64007
H          0.77675       -3.30728       -2.65174
H         -0.23716       -2.99306       -1.24173
H          1.65489       -1.75455       -0.15654
H          2.66879       -2.06708       -1.56691
H          2.43662       -4.53409       -1.18718
H          1.42328       -4.22159        0.22376
H          3.31246       -2.98179        1.30742
H          4.32583       -3.29054       -0.10444
H          4.09393       -5.75848        0.26915
H          3.08221       -5.44952        1.68199
H          4.97254       -4.21368        2.76738
H          5.98429       -4.51727        1.35321
H          5.75287       -6.98668        1.71826
H          4.74336       -6.68268        3.13375
H          6.63539       -5.45102        4.22065
H          7.64492       -5.74928        2.80377
H          7.06780       -7.12671        3.78210
