5
	Energy:       0.1406274
C          0.94738        0.00203       -0.08501
H          2.01738        0.00203       -0.08501
H          0.59071       -0.01337        0.92368
H          0.59071       -0.86382       -0.60269
H          0.59071        0.88327       -0.57602
