 Entering Gaussian System, Link 0=g09
 Input=c06h14_c01.com
 Output=c06h14_c01.out
 Initial command:
 /home/bing/src/g09_d.01/g09/l1.exe "/data/trash/Gau-23028.inp" -scrdir="/data/trash/"
 Entering Link 1 = /home/bing/src/g09_d.01/g09/l1.exe PID=     23030.
  
 Copyright (c) 1988,1990,1992,1993,1995,1998,2003,2009,2013,
            Gaussian, Inc.  All Rights Reserved.
  
 This is part of the Gaussian(R) 09 program.  It is based on
 the Gaussian(R) 03 system (copyright 2003, Gaussian, Inc.),
 the Gaussian(R) 98 system (copyright 1998, Gaussian, Inc.),
 the Gaussian(R) 94 system (copyright 1995, Gaussian, Inc.),
 the Gaussian 92(TM) system (copyright 1992, Gaussian, Inc.),
 the Gaussian 90(TM) system (copyright 1990, Gaussian, Inc.),
 the Gaussian 88(TM) system (copyright 1988, Gaussian, Inc.),
 the Gaussian 86(TM) system (copyright 1986, Carnegie Mellon
 University), and the Gaussian 82(TM) system (copyright 1983,
 Carnegie Mellon University). Gaussian is a federally registered
 trademark of Gaussian, Inc.
  
 This software contains proprietary and confidential information,
 including trade secrets, belonging to Gaussian, Inc.
  
 This software is provided under written license and may be
 used, copied, transmitted, or stored only in accord with that
 written license.
  
 The following legend is applicable only to US Government
 contracts under FAR:
  
                    RESTRICTED RIGHTS LEGEND
  
 Use, reproduction and disclosure by the US Government is
 subject to restrictions as set forth in subparagraphs (a)
 and (c) of the Commercial Computer Software - Restricted
 Rights clause in FAR 52.227-19.
  
 Gaussian, Inc.
 340 Quinnipiac St., Bldg. 40, Wallingford CT 06492
  
  
 ---------------------------------------------------------------
 Warning -- This program may not be used in any manner that
 competes with the business of Gaussian, Inc. or will provide
 assistance to any competitor of Gaussian, Inc.  The licensee
 of this program is prohibited from giving any competitor of
 Gaussian, Inc. access to this program.  By using this program,
 the user acknowledges that Gaussian, Inc. is engaged in the
 business of creating and licensing software in the field of
 computational chemistry and represents and warrants to the
 licensee that it is not a competitor of Gaussian, Inc. and that
 it will not use this program in any manner prohibited above.
 ---------------------------------------------------------------
  

 Cite this work as:
 Gaussian 09, Revision D.01,
 M. J. Frisch, G. W. Trucks, H. B. Schlegel, G. E. Scuseria, 
 M. A. Robb, J. R. Cheeseman, G. Scalmani, V. Barone, B. Mennucci, 
 G. A. Petersson, H. Nakatsuji, M. Caricato, X. Li, H. P. Hratchian, 
 A. F. Izmaylov, J. Bloino, G. Zheng, J. L. Sonnenberg, M. Hada, 
 M. Ehara, K. Toyota, R. Fukuda, J. Hasegawa, M. Ishida, T. Nakajima, 
 Y. Honda, O. Kitao, H. Nakai, T. Vreven, J. A. Montgomery, Jr., 
 J. E. Peralta, F. Ogliaro, M. Bearpark, J. J. Heyd, E. Brothers, 
 K. N. Kudin, V. N. Staroverov, T. Keith, R. Kobayashi, J. Normand, 
 K. Raghavachari, A. Rendell, J. C. Burant, S. S. Iyengar, J. Tomasi, 
 M. Cossi, N. Rega, J. M. Millam, M. Klene, J. E. Knox, J. B. Cross, 
 V. Bakken, C. Adamo, J. Jaramillo, R. Gomperts, R. E. Stratmann, 
 O. Yazyev, A. J. Austin, R. Cammi, C. Pomelli, J. W. Ochterski, 
 R. L. Martin, K. Morokuma, V. G. Zakrzewski, G. A. Voth, 
 P. Salvador, J. J. Dannenberg, S. Dapprich, A. D. Daniels, 
 O. Farkas, J. B. Foresman, J. V. Ortiz, J. Cioslowski, 
 and D. J. Fox, Gaussian, Inc., Wallingford CT, 2013.
 
 ******************************************
 Gaussian 09:  ES64L-G09RevD.01 24-Apr-2013
                18-Apr-2019 
 ******************************************
 %nproc=9
 Will use up to    9 processors via shared memory.
 ------------------
 # opt b3lyp/sto-3g
 ------------------
 1/14=-1,18=20,19=15,26=3,38=1/1,3;
 2/9=110,12=2,17=6,18=5,40=1/2;
 3/6=3,11=2,16=1,25=1,30=1,71=1,74=-5/1,2,3;
 4//1;
 5/5=2,38=5/2;
 6/7=2,8=2,9=2,10=2,28=1/1;
 7//1,2,3,16;
 1/14=-1,18=20,19=15,26=3/3(2);
 2/9=110/2;
 99//99;
 2/9=110/2;
 3/6=3,11=2,16=1,25=1,30=1,71=1,74=-5/1,2,3;
 4/5=5,16=3,69=1/1;
 5/5=2,38=5/2;
 7//1,2,3,16;
 1/14=-1,18=20,19=15,26=3/3(-5);
 2/9=110/2;
 6/7=2,8=2,9=2,10=2,19=2,28=1/1;
 99/9=1/99;
 ----------
 c06h14_c01
 ----------
 Symbolic Z-matrix:
 Charge =  0 Multiplicity = 1
 C                     0.01339  -1.58883  -2.22258 
 C                     0.55648  -3.00576  -2.12721 
 C                     1.49024  -3.16847  -0.92701 
 C                     2.03646  -4.59532  -0.83984 
 C                     2.89257  -4.84208   0.4042 
 C                     4.18279  -4.03712   0.42338 
 H                    -0.55565  -1.3256   -1.32524 
 H                    -0.65209  -1.49535  -3.08647 
 H                     0.82566  -0.86436  -2.33956 
 H                    -0.2822   -3.70686  -2.04486 
 H                     1.09302  -3.24839  -3.05186 
 H                     0.94853  -2.9249   -0.00508 
 H                     2.3168   -2.45468  -1.01686 
 H                     2.62101  -4.82353  -1.73946 
 H                     1.19616  -5.30047  -0.82209 
 H                     3.14704  -5.90799   0.44415 
 H                     2.31144  -4.62137   1.3071 
 H                     4.79411  -4.32859   1.28355 
 H                     4.76938  -4.21267  -0.48387 
 H                     3.9855   -2.96444   0.50675 
 

 GradGradGradGradGradGradGradGradGradGradGradGradGradGradGradGradGradGrad
 Berny optimization.
 Initialization pass.
                           ----------------------------
                           !    Initial Parameters    !
                           ! (Angstroms and Degrees)  !
 --------------------------                            --------------------------
 ! Name  Definition              Value          Derivative Info.                !
 --------------------------------------------------------------------------------
 ! R1    R(1,2)                  1.5204         estimate D2E/DX2                !
 ! R2    R(1,7)                  1.0947         estimate D2E/DX2                !
 ! R3    R(1,8)                  1.0945         estimate D2E/DX2                !
 ! R4    R(1,9)                  1.0947         estimate D2E/DX2                !
 ! R5    R(2,3)                  1.5293         estimate D2E/DX2                !
 ! R6    R(2,10)                 1.0962         estimate D2E/DX2                !
 ! R7    R(2,11)                 1.0962         estimate D2E/DX2                !
 ! R8    R(3,4)                  1.5303         estimate D2E/DX2                !
 ! R9    R(3,12)                 1.0967         estimate D2E/DX2                !
 ! R10   R(3,13)                 1.0958         estimate D2E/DX2                !
 ! R11   R(4,5)                  1.5302         estimate D2E/DX2                !
 ! R12   R(4,14)                 1.0969         estimate D2E/DX2                !
 ! R13   R(4,15)                 1.0971         estimate D2E/DX2                !
 ! R14   R(5,6)                  1.5209         estimate D2E/DX2                !
 ! R15   R(5,16)                 1.0966         estimate D2E/DX2                !
 ! R16   R(5,17)                 1.0962         estimate D2E/DX2                !
 ! R17   R(6,18)                 1.0948         estimate D2E/DX2                !
 ! R18   R(6,19)                 1.0945         estimate D2E/DX2                !
 ! R19   R(6,20)                 1.0939         estimate D2E/DX2                !
 ! A1    A(2,1,7)              110.9991         estimate D2E/DX2                !
 ! A2    A(2,1,8)              110.2604         estimate D2E/DX2                !
 ! A3    A(2,1,9)              111.0029         estimate D2E/DX2                !
 ! A4    A(7,1,8)              108.0842         estimate D2E/DX2                !
 ! A5    A(7,1,9)              108.311          estimate D2E/DX2                !
 ! A6    A(8,1,9)              108.0769         estimate D2E/DX2                !
 ! A7    A(1,2,3)              111.4978         estimate D2E/DX2                !
 ! A8    A(1,2,10)             109.1144         estimate D2E/DX2                !
 ! A9    A(1,2,11)             109.1584         estimate D2E/DX2                !
 ! A10   A(3,2,10)             109.8844         estimate D2E/DX2                !
 ! A11   A(3,2,11)             109.8506         estimate D2E/DX2                !
 ! A12   A(10,2,11)            107.2332         estimate D2E/DX2                !
 ! A13   A(2,3,4)              111.2129         estimate D2E/DX2                !
 ! A14   A(2,3,12)             109.5427         estimate D2E/DX2                !
 ! A15   A(2,3,13)             109.0807         estimate D2E/DX2                !
 ! A16   A(4,3,12)             109.6031         estimate D2E/DX2                !
 ! A17   A(4,3,13)             110.0466         estimate D2E/DX2                !
 ! A18   A(12,3,13)            107.2682         estimate D2E/DX2                !
 ! A19   A(3,4,5)              113.3513         estimate D2E/DX2                !
 ! A20   A(3,4,14)             109.7243         estimate D2E/DX2                !
 ! A21   A(3,4,15)             109.0757         estimate D2E/DX2                !
 ! A22   A(5,4,14)             109.578          estimate D2E/DX2                !
 ! A23   A(5,4,15)             108.1628         estimate D2E/DX2                !
 ! A24   A(14,4,15)            106.7219         estimate D2E/DX2                !
 ! A25   A(4,5,6)              113.5494         estimate D2E/DX2                !
 ! A26   A(4,5,16)             108.4332         estimate D2E/DX2                !
 ! A27   A(4,5,17)             109.9118         estimate D2E/DX2                !
 ! A28   A(6,5,16)             108.4906         estimate D2E/DX2                !
 ! A29   A(6,5,17)             109.4379         estimate D2E/DX2                !
 ! A30   A(16,5,17)            106.7814         estimate D2E/DX2                !
 ! A31   A(5,6,18)             110.042          estimate D2E/DX2                !
 ! A32   A(5,6,19)             111.0579         estimate D2E/DX2                !
 ! A33   A(5,6,20)             111.5299         estimate D2E/DX2                !
 ! A34   A(18,6,19)            108.017          estimate D2E/DX2                !
 ! A35   A(18,6,20)            107.5724         estimate D2E/DX2                !
 ! A36   A(19,6,20)            108.4888         estimate D2E/DX2                !
 ! D1    D(7,1,2,3)            -60.2018         estimate D2E/DX2                !
 ! D2    D(7,1,2,10)            61.3577         estimate D2E/DX2                !
 ! D3    D(7,1,2,11)           178.2514         estimate D2E/DX2                !
 ! D4    D(8,1,2,3)           -179.945          estimate D2E/DX2                !
 ! D5    D(8,1,2,10)           -58.3855         estimate D2E/DX2                !
 ! D6    D(8,1,2,11)            58.5082         estimate D2E/DX2                !
 ! D7    D(9,1,2,3)             60.3184         estimate D2E/DX2                !
 ! D8    D(9,1,2,10)          -178.1221         estimate D2E/DX2                !
 ! D9    D(9,1,2,11)           -61.2284         estimate D2E/DX2                !
 ! D10   D(1,2,3,4)           -179.8178         estimate D2E/DX2                !
 ! D11   D(1,2,3,12)            58.8729         estimate D2E/DX2                !
 ! D12   D(1,2,3,13)           -58.2618         estimate D2E/DX2                !
 ! D13   D(10,2,3,4)            59.0705         estimate D2E/DX2                !
 ! D14   D(10,2,3,12)          -62.2388         estimate D2E/DX2                !
 ! D15   D(10,2,3,13)         -179.3735         estimate D2E/DX2                !
 ! D16   D(11,2,3,4)           -58.6736         estimate D2E/DX2                !
 ! D17   D(11,2,3,12)         -179.9829         estimate D2E/DX2                !
 ! D18   D(11,2,3,13)           62.8825         estimate D2E/DX2                !
 ! D19   D(2,3,4,5)           -175.6094         estimate D2E/DX2                !
 ! D20   D(2,3,4,14)            61.5351         estimate D2E/DX2                !
 ! D21   D(2,3,4,15)           -55.0421         estimate D2E/DX2                !
 ! D22   D(12,3,4,5)           -54.3354         estimate D2E/DX2                !
 ! D23   D(12,3,4,14)         -177.1909         estimate D2E/DX2                !
 ! D24   D(12,3,4,15)           66.2319         estimate D2E/DX2                !
 ! D25   D(13,3,4,5)            63.3998         estimate D2E/DX2                !
 ! D26   D(13,3,4,14)          -59.4558         estimate D2E/DX2                !
 ! D27   D(13,3,4,15)         -176.0329         estimate D2E/DX2                !
 ! D28   D(3,4,5,6)            -65.5508         estimate D2E/DX2                !
 ! D29   D(3,4,5,16)           173.7896         estimate D2E/DX2                !
 ! D30   D(3,4,5,17)            57.4036         estimate D2E/DX2                !
 ! D31   D(14,4,5,6)            57.3854         estimate D2E/DX2                !
 ! D32   D(14,4,5,16)          -63.2742         estimate D2E/DX2                !
 ! D33   D(14,4,5,17)         -179.6601         estimate D2E/DX2                !
 ! D34   D(15,4,5,6)           173.3664         estimate D2E/DX2                !
 ! D35   D(15,4,5,16)           52.7068         estimate D2E/DX2                !
 ! D36   D(15,4,5,17)          -63.6792         estimate D2E/DX2                !
 ! D37   D(4,5,6,18)          -174.4688         estimate D2E/DX2                !
 ! D38   D(4,5,6,19)           -54.9141         estimate D2E/DX2                !
 ! D39   D(4,5,6,20)            66.2304         estimate D2E/DX2                !
 ! D40   D(16,5,6,18)          -53.8415         estimate D2E/DX2                !
 ! D41   D(16,5,6,19)           65.7132         estimate D2E/DX2                !
 ! D42   D(16,5,6,20)         -173.1424         estimate D2E/DX2                !
 ! D43   D(17,5,6,18)           62.3167         estimate D2E/DX2                !
 ! D44   D(17,5,6,19)         -178.1286         estimate D2E/DX2                !
 ! D45   D(17,5,6,20)          -56.9842         estimate D2E/DX2                !
 --------------------------------------------------------------------------------
 Trust Radius=3.00D-01 FncErr=1.00D-07 GrdErr=1.00D-06
 Number of steps in this run=    110 maximum allowed number of steps=    120.
 GradGradGradGradGradGradGradGradGradGradGradGradGradGradGradGradGradGrad

                          Input orientation:                          
 ---------------------------------------------------------------------
 Center     Atomic      Atomic             Coordinates (Angstroms)
 Number     Number       Type             X           Y           Z
 ---------------------------------------------------------------------
      1          6           0        0.013390   -1.588830   -2.222580
      2          6           0        0.556480   -3.005760   -2.127210
      3          6           0        1.490240   -3.168470   -0.927010
      4          6           0        2.036460   -4.595320   -0.839840
      5          6           0        2.892570   -4.842080    0.404200
      6          6           0        4.182790   -4.037120    0.423380
      7          1           0       -0.555650   -1.325600   -1.325240
      8          1           0       -0.652090   -1.495350   -3.086470
      9          1           0        0.825660   -0.864360   -2.339560
     10          1           0       -0.282200   -3.706860   -2.044860
     11          1           0        1.093020   -3.248390   -3.051860
     12          1           0        0.948530   -2.924900   -0.005080
     13          1           0        2.316800   -2.454680   -1.016860
     14          1           0        2.621010   -4.823530   -1.739460
     15          1           0        1.196160   -5.300470   -0.822090
     16          1           0        3.147040   -5.907990    0.444150
     17          1           0        2.311440   -4.621370    1.307100
     18          1           0        4.794110   -4.328590    1.283550
     19          1           0        4.769380   -4.212670   -0.483870
     20          1           0        3.985500   -2.964440    0.506750
 ---------------------------------------------------------------------
                    Distance matrix (angstroms):
                    1          2          3          4          5
     1  C    0.000000
     2  C    1.520438   0.000000
     3  C    2.520883   1.529334   0.000000
     4  C    3.878629   2.524750   1.530312   0.000000
     5  C    5.076740   3.903514   2.557268   1.530180   0.000000
     6  C    5.511726   4.551850   3.134953   2.552263   1.520854
     7  H    1.094676   2.168623   2.782162   4.200680   5.219848
     8  H    1.094490   2.159203   3.471624   4.678190   5.995831
     9  H    1.094680   2.168673   2.783143   4.199436   5.255720
    10  H    2.145928   1.096224   2.163561   2.760003   4.167227
    11  H    2.146496   1.096231   2.163136   2.756326   4.209819
    12  H    2.752613   2.159555   1.096691   2.161185   2.760866
    13  H    2.740284   2.152973   1.095797   2.166164   2.837358
    14  H    4.182866   2.777935   2.162854   1.096857   2.160872
    15  H    4.139636   2.716288   2.154743   1.097112   2.142829
    16  H    5.965430   4.663243   3.482820   2.145955   1.096593
    17  H    5.189988   4.181455   2.788644   2.164635   1.096200
    18  H    6.531043   5.598274   4.141016   3.490639   2.157031
    19  H    5.703253   4.680355   3.469796   2.782443   2.169618
    20  H    5.011906   4.324076   2.885068   2.876079   2.174981
                    6          7          8          9         10
     6  C    0.000000
     7  H    5.732611   0.000000
     8  H    6.492743   1.772018   0.000000
     9  H    5.382431   1.774713   1.771939   0.000000
    10  H    5.112477   2.502604   2.472356   3.064965   0.000000
    11  H    4.716574   3.065363   2.473814   2.502489   1.765070
    12  H    3.446890   2.561863   3.755071   3.116203   2.507361
    13  H    2.839071   3.101756   3.744050   2.549932   3.062603
    14  H    2.781272   4.743233   4.858436   4.388443   3.125516
    15  H    3.473789   4.372824   4.798165   4.703090   2.494054
    16  H    2.138542   6.151337   6.809556   6.210962   4.774917
    17  H    2.150409   5.100149   6.152883   5.442499   4.335774
    18  H    1.094787   6.666608   7.535610   6.393466   6.101949
    19  H    1.094536   6.115474   6.599219   5.496153   5.311402
    20  H    1.093854   5.163722   6.047867   4.743038   5.027441
                   11         12         13         14         15
    11  H    0.000000
    12  H    3.067310   0.000000
    13  H    2.503765   1.765494   0.000000
    14  H    2.556993   3.067582   2.495224   0.000000
    15  H    3.032086   2.524314   3.064684   1.760465   0.000000
    16  H    4.849181   3.732838   3.840469   2.494176   2.403826
    17  H    4.729710   2.541132   3.177320   3.068914   2.497694
    18  H    5.801782   4.291783   3.865293   3.755785   4.280597
    19  H    4.586941   4.060355   3.064271   2.562255   3.750414
    20  H    4.594646   3.080052   2.316420   3.219240   3.873405
                   16         17         18         19         20
    16  H    0.000000
    17  H    1.760199   0.000000
    18  H    2.431447   2.499985   0.000000
    19  H    2.523355   3.068563   1.771390   0.000000
    20  H    3.061278   2.487660   1.765835   1.775915   0.000000
 Stoichiometry    C6H14
 Framework group  C1[X(C6H14)]
 Deg. of freedom    54
 Full point group                 C1      NOp   1
 Largest Abelian subgroup         C1      NOp   1
 Largest concise Abelian subgroup C1      NOp   1
                         Standard orientation:                         
 ---------------------------------------------------------------------
 Center     Atomic      Atomic             Coordinates (Angstroms)
 Number     Number       Type             X           Y           Z
 ---------------------------------------------------------------------
      1          6           0       -2.940852    0.533993    0.112410
      2          6           0       -1.814444   -0.415201   -0.264376
      3          6           0       -0.457887    0.109155    0.208557
      4          6           0        0.671312   -0.848672   -0.177879
      5          6           0        2.038127   -0.425008    0.364132
      6          6           0        2.549479    0.878732   -0.228977
      7          1           0       -2.998517    0.663028    1.197924
      8          1           0       -3.901018    0.139293   -0.234291
      9          1           0       -2.793599    1.518222   -0.343588
     10          1           0       -2.009675   -1.398201    0.179812
     11          1           0       -1.803812   -0.546877   -1.352618
     12          1           0       -0.474001    0.238701    1.297451
     13          1           0       -0.281263    1.095996   -0.233845
     14          1           0        0.721319   -0.940648   -1.269728
     15          1           0        0.443240   -1.848105    0.212983
     16          1           0        2.761633   -1.217395    0.137909
     17          1           0        1.995911   -0.337277    1.455999
     18          1           0        3.567611    1.076524    0.121514
     19          1           0        2.570962    0.831697   -1.322291
     20          1           0        1.926793    1.727055    0.069562
 ---------------------------------------------------------------------
 Rotational constants (GHZ):      8.7428277      1.3673625      1.2714882
 Standard basis: STO-3G (5D, 7F)
 There are    44 symmetry adapted cartesian basis functions of A   symmetry.
 There are    44 symmetry adapted basis functions of A   symmetry.
    44 basis functions,   132 primitive gaussians,    44 cartesian basis functions
    25 alpha electrons       25 beta electrons
       nuclear repulsion energy       248.3977259778 Hartrees.
 NAtoms=   20 NActive=   20 NUniq=   20 SFac= 1.00D+00 NAtFMM=   60 NAOKFM=F Big=F
 Integral buffers will be    131072 words long.
 Raffenetti 2 integral format.
 Two-electron integral symmetry is turned on.
 One-electron integrals computed using PRISM.
 NBasis=    44 RedAO= T EigKep=  1.97D-01  NBF=    44
 NBsUse=    44 1.00D-06 EigRej= -1.00D+00 NBFU=    44
 ExpMin= 1.69D-01 ExpMax= 7.16D+01 ExpMxC= 7.16D+01 IAcc=1 IRadAn=         1 AccDes= 0.00D+00
 Harris functional with IExCor=  402 and IRadAn=       1 diagonalized for initial guess.
 HarFok:  IExCor=  402 AccDes= 0.00D+00 IRadAn=         1 IDoV= 1 UseB2=F ITyADJ=14
 ICtDFT=  3500011 ScaDFX=  1.000000  1.000000  1.000000  1.000000
 FoFCou: FMM=F IPFlag=           0 FMFlag=      100000 FMFlg1=           0
         NFxFlg=           0 DoJE=T BraDBF=F KetDBF=T FulRan=T
         wScrn=  0.000000 ICntrl=     500 IOpCl=  0 I1Cent=   200000004 NGrid=           0
         NMat0=    1 NMatS0=      1 NMatT0=    0 NMatD0=    1 NMtDS0=    0 NMtDT0=    0
 Petite list used in FoFCou.
 Keep R1 ints in memory in canonical form, NReq=1381411.
 Requested convergence on RMS density matrix=1.00D-08 within 128 cycles.
 Requested convergence on MAX density matrix=1.00D-06.
 Requested convergence on             energy=1.00D-06.
 No special actions if energy rises.
 Integral accuracy reduced to 1.0D-05 until final iterations.
 Initial convergence to 1.0D-05 achieved.  Increase integral accuracy.
 SCF Done:  E(RB3LYP) =  -234.273109676     A.U. after   10 cycles
            NFock= 10  Conv=0.54D-08     -V/T= 2.0171

 **********************************************************************

            Population analysis using the SCF density.

 **********************************************************************

 Orbital symmetries:
       Occupied  (A) (A) (A) (A) (A) (A) (A) (A) (A) (A) (A) (A)
                 (A) (A) (A) (A) (A) (A) (A) (A) (A) (A) (A) (A)
                 (A)
       Virtual   (A) (A) (A) (A) (A) (A) (A) (A) (A) (A) (A) (A)
                 (A) (A) (A) (A) (A) (A) (A)
 The electronic state is 1-A.
 Alpha  occ. eigenvalues --  -10.00632 -10.00623 -10.00349 -10.00245  -9.99800
 Alpha  occ. eigenvalues --   -9.99780  -0.76996  -0.73121  -0.66975  -0.60835
 Alpha  occ. eigenvalues --   -0.55258  -0.53277  -0.44148  -0.41804  -0.40285
 Alpha  occ. eigenvalues --   -0.37764  -0.37425  -0.35030  -0.33128  -0.31975
 Alpha  occ. eigenvalues --   -0.30457  -0.29523  -0.28400  -0.27793  -0.26174
 Alpha virt. eigenvalues --    0.35594   0.36582   0.38958   0.40251   0.41588
 Alpha virt. eigenvalues --    0.42842   0.44985   0.45346   0.46945   0.48969
 Alpha virt. eigenvalues --    0.49181   0.50707   0.51556   0.52343   0.52647
 Alpha virt. eigenvalues --    0.53181   0.53643   0.55208   0.56618
          Condensed to atoms (all electrons):
               1          2          3          4          5          6
     1  C    4.785066   0.366474  -0.023803   0.000832  -0.000006   0.000000
     2  C    0.366474   4.770853   0.365635  -0.022761   0.000775   0.000008
     3  C   -0.023803   0.365635   4.783109   0.365388  -0.021433  -0.002186
     4  C    0.000832  -0.022761   0.365388   4.783028   0.364319  -0.022450
     5  C   -0.000006   0.000775  -0.021433   0.364319   4.770444   0.366984
     6  C    0.000000   0.000008  -0.002186  -0.022450   0.366984   4.784737
     7  H    0.381489  -0.020792  -0.002470   0.000011   0.000000   0.000000
     8  H    0.381017  -0.020297   0.001440  -0.000019   0.000000   0.000000
     9  H    0.381462  -0.020785  -0.002473   0.000011   0.000000   0.000000
    10  H   -0.022719   0.381054  -0.022125  -0.002481   0.000010  -0.000001
    11  H   -0.022645   0.381057  -0.022083  -0.002386   0.000008   0.000001
    12  H   -0.002410  -0.022085   0.380267  -0.022247  -0.002597   0.000002
    13  H   -0.002499  -0.022530   0.380728  -0.021729  -0.001660  -0.000421
    14  H    0.000006  -0.002086  -0.022365   0.380132  -0.022224  -0.002715
    15  H    0.000016  -0.003030  -0.022671   0.380177  -0.022349   0.001401
    16  H    0.000000  -0.000017   0.001357  -0.022187   0.380733  -0.023313
    17  H    0.000000   0.000011  -0.002684  -0.022129   0.380778  -0.022824
    18  H    0.000000   0.000000   0.000022   0.001378  -0.020282   0.381093
    19  H    0.000000  -0.000003  -0.000015  -0.002713  -0.020829   0.381313
    20  H    0.000001  -0.000003  -0.000414  -0.001577  -0.020409   0.381619
               7          8          9         10         11         12
     1  C    0.381489   0.381017   0.381462  -0.022719  -0.022645  -0.002410
     2  C   -0.020792  -0.020297  -0.020785   0.381054   0.381057  -0.022085
     3  C   -0.002470   0.001440  -0.002473  -0.022125  -0.022083   0.380267
     4  C    0.000011  -0.000019   0.000011  -0.002481  -0.002386  -0.022247
     5  C    0.000000   0.000000   0.000000   0.000010   0.000008  -0.002597
     6  C    0.000000   0.000000   0.000000  -0.000001   0.000001   0.000002
     7  H    0.612676  -0.021112  -0.021308  -0.002554   0.002066   0.000590
     8  H   -0.021112   0.613006  -0.021113  -0.002488  -0.002477   0.000013
     9  H   -0.021308  -0.021113   0.612770   0.002067  -0.002562  -0.000027
    10  H   -0.002554  -0.002488   0.002067   0.623677  -0.023099  -0.002523
    11  H    0.002066  -0.002477  -0.002562  -0.023099   0.623347   0.002015
    12  H    0.000590   0.000013  -0.000027  -0.002523   0.002015   0.624802
    13  H   -0.000029   0.000014   0.000595   0.002027  -0.002504  -0.023266
    14  H   -0.000001   0.000000   0.000002  -0.000013   0.000542   0.002006
    15  H    0.000002  -0.000001   0.000000   0.000641  -0.000023  -0.002159
    16  H    0.000000   0.000000   0.000000  -0.000001   0.000000   0.000021
    17  H    0.000000   0.000000   0.000000   0.000003   0.000000   0.000661
    18  H    0.000000   0.000000   0.000000   0.000000   0.000000  -0.000006
    19  H    0.000000   0.000000   0.000000   0.000000   0.000000   0.000008
    20  H    0.000000   0.000000   0.000000   0.000000   0.000000   0.000059
              13         14         15         16         17         18
     1  C   -0.002499   0.000006   0.000016   0.000000   0.000000   0.000000
     2  C   -0.022530  -0.002086  -0.003030  -0.000017   0.000011   0.000000
     3  C    0.380728  -0.022365  -0.022671   0.001357  -0.002684   0.000022
     4  C   -0.021729   0.380132   0.380177  -0.022187  -0.022129   0.001378
     5  C   -0.001660  -0.022224  -0.022349   0.380733   0.380778  -0.020282
     6  C   -0.000421  -0.002715   0.001401  -0.023313  -0.022824   0.381093
     7  H   -0.000029  -0.000001   0.000002   0.000000   0.000000   0.000000
     8  H    0.000014   0.000000  -0.000001   0.000000   0.000000   0.000000
     9  H    0.000595   0.000002   0.000000   0.000000   0.000000   0.000000
    10  H    0.002027  -0.000013   0.000641  -0.000001   0.000003   0.000000
    11  H   -0.002504   0.000542  -0.000023   0.000000   0.000000   0.000000
    12  H   -0.023266   0.002006  -0.002159   0.000021   0.000661  -0.000006
    13  H    0.623884  -0.002797   0.002035  -0.000003   0.000011  -0.000004
    14  H   -0.002797   0.624984  -0.023072  -0.002034   0.002000   0.000015
    15  H    0.002035  -0.023072   0.626936  -0.003269  -0.002019  -0.000038
    16  H   -0.000003  -0.002034  -0.003269   0.625788  -0.022869  -0.003269
    17  H    0.000011   0.002000  -0.002019  -0.022869   0.623289  -0.001952
    18  H   -0.000004   0.000015  -0.000038  -0.003269  -0.001952   0.613197
    19  H    0.000056   0.000688   0.000024  -0.002095   0.002048  -0.020984
    20  H   -0.000146  -0.000001  -0.000004   0.002095  -0.002957  -0.021477
              19         20
     1  C    0.000000   0.000001
     2  C   -0.000003  -0.000003
     3  C   -0.000015  -0.000414
     4  C   -0.002713  -0.001577
     5  C   -0.020829  -0.020409
     6  C    0.381313   0.381619
     7  H    0.000000   0.000000
     8  H    0.000000   0.000000
     9  H    0.000000   0.000000
    10  H    0.000000   0.000000
    11  H    0.000000   0.000000
    12  H    0.000008   0.000059
    13  H    0.000056  -0.000146
    14  H    0.000688  -0.000001
    15  H    0.000024  -0.000004
    16  H   -0.002095   0.002095
    17  H    0.002048  -0.002957
    18  H   -0.020984  -0.021477
    19  H    0.612376  -0.021258
    20  H   -0.021258   0.612303
 Mulliken charges:
               1
     1  C   -0.222283
     2  C   -0.131477
     3  C   -0.133223
     4  C   -0.132595
     5  C   -0.132262
     6  C   -0.223247
     7  H    0.071431
     8  H    0.072018
     9  H    0.071361
    10  H    0.068525
    11  H    0.068743
    12  H    0.066875
    13  H    0.068238
    14  H    0.066934
    15  H    0.067403
    16  H    0.069064
    17  H    0.068634
    18  H    0.072306
    19  H    0.071383
    20  H    0.072170
 Sum of Mulliken charges =   0.00000
 Mulliken charges with hydrogens summed into heavy atoms:
               1
     1  C   -0.007472
     2  C    0.005790
     3  C    0.001891
     4  C    0.001743
     5  C    0.005437
     6  C   -0.007387
 Electronic spatial extent (au):  <R**2>=           1005.0778
 Charge=              0.0000 electrons
 Dipole moment (field-independent basis, Debye):
    X=              0.0158    Y=             -0.0454    Z=              0.0024  Tot=              0.0482
 Quadrupole moment (field-independent basis, Debye-Ang):
   XX=            -39.3189   YY=            -38.8193   ZZ=            -38.3136
   XY=              0.0275   XZ=              0.0368   YZ=             -0.0605
 Traceless Quadrupole moment (field-independent basis, Debye-Ang):
   XX=             -0.5017   YY=             -0.0020   ZZ=              0.5037
   XY=              0.0275   XZ=              0.0368   YZ=             -0.0605
 Octapole moment (field-independent basis, Debye-Ang**2):
  XXX=              1.6765  YYY=             -0.2767  ZZZ=             -0.0152  XYY=             -0.3985
  XXY=             -1.6815  XXZ=             -0.1260  XZZ=             -0.1368  YZZ=              0.0227
  YYZ=              0.1581  XYZ=              0.5151
 Hexadecapole moment (field-independent basis, Debye-Ang**3):
 XXXX=          -1029.7045 YYYY=           -166.8398 ZZZZ=            -83.6403 XXXY=              4.4257
 XXXZ=              4.8894 YYYX=             -1.6720 YYYZ=             -1.8076 ZZZX=             -2.1069
 ZZZY=              1.0885 XXYY=           -202.7951 XXZZ=           -186.6306 YYZZ=            -44.2408
 XXYZ=              1.0455 YYXZ=              0.7403 ZZXY=             -0.2142
 N-N= 2.483977259778D+02 E-N=-1.037050054167D+03  KE= 2.303342631190D+02
 Calling FoFJK, ICntrl=      2127 FMM=F ISym2X=0 I1Cent= 0 IOpClX= 0 NMat=1 NMatS=1 NMatT=0.
 ***** Axes restored to original set *****
 -------------------------------------------------------------------
 Center     Atomic                   Forces (Hartrees/Bohr)
 Number     Number              X              Y              Z
 -------------------------------------------------------------------
      1        6          -0.008570915    0.015865965   -0.004608347
      2        6          -0.003509275   -0.006841981   -0.007419257
      3        6           0.003038935    0.004967505    0.005205635
      4        6          -0.003976675   -0.010408015   -0.005399357
      5        6          -0.002122625   -0.012501603    0.008912017
      6        6           0.015669495    0.008816927    0.003749787
      7        1          -0.002144244    0.001584258    0.003911097
      8        1          -0.003478396    0.002091758   -0.003769452
      9        1           0.003279845    0.003424456   -0.000076638
     10        1          -0.003565223   -0.004962451    0.000648815
     11        1           0.003345644   -0.002583913   -0.004420113
     12        1          -0.002713242    0.001333495    0.004620450
     13        1           0.004187142    0.003622277    0.000076216
     14        1           0.003271637   -0.000542888   -0.004404729
     15        1          -0.004946564   -0.002862503   -0.000809739
     16        1           0.000789726   -0.006144294    0.000710065
     17        1          -0.004052381    0.001369037    0.004408918
     18        1           0.003592804   -0.000772800    0.003516224
     19        1           0.002525694   -0.000292319   -0.004125174
     20        1          -0.000621382    0.004837089   -0.000726419
 -------------------------------------------------------------------
 Cartesian Forces:  Max     0.015865965 RMS     0.005288888

 GradGradGradGradGradGradGradGradGradGradGradGradGradGradGradGradGradGrad
 Berny optimization.
 FormGI is forming the generalized inverse of G from B-inverse, IUseBI=4.
 Internal  Forces:  Max     0.025595535 RMS     0.005749849
 Search for a local minimum.
 Step number   1 out of a maximum of  110
 All quantities printed in internal units (Hartrees-Bohrs-Radians)
 Mixed Optimization -- RFO/linear search
 Second derivative matrix not updated -- first step.
 ITU=  0
     Eigenvalues ---    0.00365   0.00367   0.00378   0.00490   0.00496
     Eigenvalues ---    0.03472   0.03505   0.03692   0.03716   0.04831
     Eigenvalues ---    0.04876   0.04886   0.04924   0.05538   0.05607
     Eigenvalues ---    0.05702   0.05717   0.08083   0.08165   0.08444
     Eigenvalues ---    0.08504   0.12015   0.12067   0.12286   0.12324
     Eigenvalues ---    0.16000   0.16000   0.16000   0.16000   0.16000
     Eigenvalues ---    0.16000   0.21900   0.21906   0.21931   0.21938
     Eigenvalues ---    0.29395   0.29407   0.29485   0.30284   0.30324
     Eigenvalues ---    0.34003   0.34032   0.34051   0.34062   0.34102
     Eigenvalues ---    0.34103   0.34106   0.34151   0.34265   0.34277
     Eigenvalues ---    0.34278   0.34294   0.34299   0.34371
 RFO step:  Lambda=-1.09565169D-02 EMin= 3.64973456D-03
 Linear search not attempted -- first point.
 Iteration  1 RMS(Cart)=  0.06303313 RMS(Int)=  0.00020637
 Iteration  2 RMS(Cart)=  0.00034598 RMS(Int)=  0.00006275
 Iteration  3 RMS(Cart)=  0.00000017 RMS(Int)=  0.00006275
 Variable       Old X    -DE/DX   Delta X   Delta X   Delta X     New X
                                 (Linear)    (Quad)   (Total)
    R1        2.87321   0.02560   0.00000   0.08146   0.08146   2.95467
    R2        2.06864   0.00470   0.00000   0.01330   0.01330   2.08193
    R3        2.06829   0.00527   0.00000   0.01488   0.01488   2.08317
    R4        2.06864   0.00471   0.00000   0.01332   0.01332   2.08196
    R5        2.89002   0.02219   0.00000   0.07256   0.07256   2.96259
    R6        2.07156   0.00595   0.00000   0.01689   0.01689   2.08846
    R7        2.07158   0.00594   0.00000   0.01687   0.01687   2.08845
    R8        2.89187   0.02121   0.00000   0.06958   0.06958   2.96145
    R9        2.07245   0.00552   0.00000   0.01571   0.01571   2.08815
   R10        2.07076   0.00551   0.00000   0.01564   0.01564   2.08639
   R11        2.89162   0.02295   0.00000   0.07525   0.07525   2.96687
   R12        2.07276   0.00547   0.00000   0.01558   0.01558   2.08833
   R13        2.07324   0.00562   0.00000   0.01600   0.01600   2.08924
   R14        2.87400   0.02464   0.00000   0.07851   0.07851   2.95251
   R15        2.07226   0.00618   0.00000   0.01759   0.01759   2.08985
   R16        2.07152   0.00605   0.00000   0.01720   0.01720   2.08872
   R17        2.06885   0.00498   0.00000   0.01407   0.01407   2.08292
   R18        2.06837   0.00482   0.00000   0.01361   0.01361   2.08199
   R19        2.06708   0.00480   0.00000   0.01353   0.01353   2.08061
    A1        1.93730  -0.00010   0.00000  -0.00179  -0.00181   1.93549
    A2        1.92441   0.00253   0.00000   0.01718   0.01715   1.94155
    A3        1.93737  -0.00005   0.00000  -0.00142  -0.00145   1.93592
    A4        1.88643  -0.00096   0.00000  -0.00345  -0.00348   1.88295
    A5        1.89038  -0.00055   0.00000  -0.00764  -0.00766   1.88273
    A6        1.88630  -0.00097   0.00000  -0.00338  -0.00341   1.88289
    A7        1.94600   0.00567   0.00000   0.02794   0.02792   1.97392
    A8        1.90441  -0.00079   0.00000   0.00398   0.00407   1.90848
    A9        1.90517  -0.00086   0.00000   0.00313   0.00323   1.90840
   A10        1.91784  -0.00240   0.00000  -0.01395  -0.01417   1.90367
   A11        1.91725  -0.00239   0.00000  -0.01417  -0.01437   1.90288
   A12        1.87157   0.00058   0.00000  -0.00815  -0.00835   1.86322
   A13        1.94103   0.00608   0.00000   0.02926   0.02924   1.97027
   A14        1.91188  -0.00188   0.00000  -0.00736  -0.00737   1.90451
   A15        1.90382  -0.00158   0.00000  -0.00372  -0.00377   1.90005
   A16        1.91293  -0.00176   0.00000  -0.00705  -0.00707   1.90587
   A17        1.92068  -0.00186   0.00000  -0.00661  -0.00669   1.91399
   A18        1.87218   0.00080   0.00000  -0.00584  -0.00592   1.86626
   A19        1.97835   0.00400   0.00000   0.01838   0.01837   1.99673
   A20        1.91505  -0.00130   0.00000  -0.00959  -0.00957   1.90548
   A21        1.90373  -0.00200   0.00000  -0.00912  -0.00930   1.89443
   A22        1.91250  -0.00162   0.00000  -0.00918  -0.00910   1.90339
   A23        1.88780   0.00004   0.00000   0.00913   0.00913   1.89693
   A24        1.86265   0.00072   0.00000  -0.00040  -0.00045   1.86220
   A25        1.98181   0.00286   0.00000   0.01372   0.01369   1.99550
   A26        1.89252  -0.00055   0.00000   0.00170   0.00158   1.89410
   A27        1.91832  -0.00190   0.00000  -0.01558  -0.01557   1.90275
   A28        1.89352  -0.00052   0.00000   0.00440   0.00432   1.89783
   A29        1.91005  -0.00035   0.00000  -0.00175  -0.00168   1.90837
   A30        1.86369   0.00033   0.00000  -0.00315  -0.00316   1.86052
   A31        1.92059   0.00165   0.00000   0.01241   0.01239   1.93299
   A32        1.93833  -0.00019   0.00000  -0.00320  -0.00322   1.93511
   A33        1.94656   0.00006   0.00000  -0.00037  -0.00040   1.94616
   A34        1.88525  -0.00059   0.00000  -0.00213  -0.00213   1.88312
   A35        1.87749  -0.00035   0.00000   0.00189   0.00185   1.87934
   A36        1.89349  -0.00063   0.00000  -0.00875  -0.00877   1.88472
    D1       -1.05072   0.00038   0.00000   0.00554   0.00554  -1.04518
    D2        1.07089   0.00051   0.00000   0.00884   0.00891   1.07980
    D3        3.11107   0.00028   0.00000   0.00308   0.00302   3.11409
    D4       -3.14063   0.00000   0.00000  -0.00020  -0.00021  -3.14084
    D5       -1.01902   0.00013   0.00000   0.00309   0.00316  -1.01586
    D6        1.02116  -0.00011   0.00000  -0.00267  -0.00273   1.01843
    D7        1.05275  -0.00041   0.00000  -0.00628  -0.00629   1.04647
    D8       -3.10882  -0.00028   0.00000  -0.00298  -0.00292  -3.11173
    D9       -1.06864  -0.00051   0.00000  -0.00874  -0.00881  -1.07745
   D10       -3.13841   0.00001   0.00000  -0.00062  -0.00064  -3.13905
   D11        1.02753  -0.00048   0.00000  -0.00591  -0.00590   1.02163
   D12       -1.01686   0.00054   0.00000   0.00747   0.00748  -1.00938
   D13        1.03097  -0.00110   0.00000  -0.01462  -0.01452   1.01645
   D14       -1.08627  -0.00159   0.00000  -0.01991  -0.01978  -1.10605
   D15       -3.13066  -0.00057   0.00000  -0.00653  -0.00640  -3.13706
   D16       -1.02405   0.00105   0.00000   0.01214   0.01201  -1.01204
   D17       -3.14129   0.00056   0.00000   0.00686   0.00675  -3.13454
   D18        1.09751   0.00158   0.00000   0.02024   0.02013   1.11763
   D19       -3.06496  -0.00046   0.00000  -0.01036  -0.01035  -3.07531
   D20        1.07399  -0.00021   0.00000  -0.00427  -0.00423   1.06975
   D21       -0.96067   0.00081   0.00000   0.00688   0.00683  -0.95384
   D22       -0.94833  -0.00003   0.00000  -0.00524  -0.00525  -0.95358
   D23       -3.09257   0.00022   0.00000   0.00085   0.00087  -3.09170
   D24        1.15597   0.00124   0.00000   0.01200   0.01193   1.16790
   D25        1.10653  -0.00122   0.00000  -0.02051  -0.02048   1.08605
   D26       -1.03770  -0.00097   0.00000  -0.01442  -0.01437  -1.05206
   D27       -3.07235   0.00005   0.00000  -0.00327  -0.00330  -3.07566
   D28       -1.14408   0.00021   0.00000   0.00689   0.00698  -1.13710
   D29        3.03320  -0.00060   0.00000  -0.00874  -0.00868   3.02452
   D30        1.00188   0.00037   0.00000   0.00266   0.00269   1.00457
   D31        1.00156   0.00013   0.00000   0.00056   0.00059   1.00215
   D32       -1.10434  -0.00068   0.00000  -0.01508  -0.01507  -1.11942
   D33       -3.13566   0.00029   0.00000  -0.00368  -0.00370  -3.13936
   D34        3.02581   0.00013   0.00000   0.00020   0.00017   3.02598
   D35        0.91991  -0.00067   0.00000  -0.01543  -0.01549   0.90442
   D36       -1.11141   0.00029   0.00000  -0.00403  -0.00412  -1.11553
   D37       -3.04505  -0.00043   0.00000  -0.01225  -0.01226  -3.05731
   D38       -0.95843  -0.00022   0.00000  -0.00890  -0.00892  -0.96735
   D39        1.15594  -0.00112   0.00000  -0.02254  -0.02256   1.13338
   D40       -0.93971   0.00036   0.00000   0.00187   0.00191  -0.93780
   D41        1.14691   0.00057   0.00000   0.00523   0.00525   1.15216
   D42       -3.02190  -0.00033   0.00000  -0.00841  -0.00839  -3.03029
   D43        1.08763   0.00027   0.00000  -0.00038  -0.00038   1.08725
   D44       -3.10893   0.00048   0.00000   0.00297   0.00296  -3.10597
   D45       -0.99456  -0.00042   0.00000  -0.01067  -0.01068  -1.00524
         Item               Value     Threshold  Converged?
 Maximum Force            0.025596     0.000450     NO 
 RMS     Force            0.005750     0.000300     NO 
 Maximum Displacement     0.159694     0.001800     NO 
 RMS     Displacement     0.063275     0.001200     NO 
 Predicted change in Energy=-5.697080D-03
 GradGradGradGradGradGradGradGradGradGradGradGradGradGradGradGradGradGrad

                          Input orientation:                          
 ---------------------------------------------------------------------
 Center     Atomic      Atomic             Coordinates (Angstroms)
 Number     Number       Type             X           Y           Z
 ---------------------------------------------------------------------
      1          6           0       -0.054127   -1.527043   -2.273317
      2          6           0        0.514028   -2.979314   -2.160252
      3          6           0        1.472936   -3.170909   -0.934865
      4          6           0        2.042327   -4.627049   -0.828320
      5          6           0        2.932542   -4.884339    0.439047
      6          6           0        4.260992   -4.062548    0.470275
      7          1           0       -0.627695   -1.258213   -1.371918
      8          1           0       -0.723852   -1.426758   -3.143155
      9          1           0        0.760233   -0.793775   -2.387072
     10          1           0       -0.324090   -3.695018   -2.078317
     11          1           0        1.059454   -3.232233   -3.087570
     12          1           0        0.926887   -2.925409   -0.006107
     13          1           0        2.306184   -2.451315   -1.017675
     14          1           0        2.631701   -4.853607   -1.735267
     15          1           0        1.194190   -5.336133   -0.815316
     16          1           0        3.179965   -5.961356    0.481848
     17          1           0        2.341767   -4.659778    1.345826
     18          1           0        4.878028   -4.350433    1.337056
     19          1           0        4.853886   -4.240005   -0.441216
     20          1           0        4.065283   -2.981545    0.543458
 ---------------------------------------------------------------------
                    Distance matrix (angstroms):
                    1          2          3          4          5
     1  C    0.000000
     2  C    1.563546   0.000000
     3  C    2.612599   1.567733   0.000000
     4  C    4.011631   2.612427   1.567132   0.000000
     5  C    5.248671   4.029229   2.637030   1.570000   0.000000
     6  C    5.707569   4.704552   3.246952   2.632012   1.562401
     7  H    1.101712   2.210700   2.874382   4.332849   5.394782
     8  H    1.102364   2.215598   3.569941   4.822040   6.177074
     9  H    1.101728   2.211029   2.875347   4.332144   5.425734
    10  H    2.193404   1.105164   2.193507   2.833920   4.284537
    11  H    2.193341   1.105159   2.192913   2.831213   4.321452
    12  H    2.838672   2.194015   1.105003   2.194498   2.838701
    13  H    2.828778   2.189997   1.104072   2.199840   2.904130
    14  H    4.309200   2.859742   2.194277   1.105099   2.195243
    15  H    4.265353   2.797511   2.186364   1.105579   2.190756
    16  H    6.141125   4.793796   3.564775   2.188866   1.105901
    17  H    5.352807   4.296181   2.858872   2.194913   1.105300
    18  H    6.732940   5.758092   4.259995   3.578627   2.208255
    19  H    5.899607   4.835162   3.580151   2.864353   2.209433
    20  H    5.198013   4.463346   2.990244   2.946491   2.216896
                    6          7          8          9         10
     6  C    0.000000
     7  H    5.929354   0.000000
     8  H    6.697233   1.781834   0.000000
     9  H    5.577153   1.781175   1.781807   0.000000
    10  H    5.258648   2.555229   2.537458   3.112604   0.000000
    11  H    4.857729   3.112345   2.538308   2.554664   1.773967
    12  H    3.554756   2.657387   3.848631   3.200099   2.539940
    13  H    2.937915   3.186947   3.840377   2.648141   3.096788
    14  H    2.853906   4.866471   4.998517   4.517685   3.193229
    15  H    3.560904   4.500945   4.937705   4.826153   2.567801
    16  H    2.185000   6.328845   6.995928   6.386682   4.895828
    17  H    2.192418   5.270151   6.324665   5.601943   4.445482
    18  H    1.102234   6.871198   7.746045   6.593571   6.257505
    19  H    1.101740   6.309123   6.806320   5.693932   5.457889
    20  H    1.101012   5.353745   6.240535   4.929269   5.162300
                   11         12         13         14         15
    11  H    0.000000
    12  H    3.099537   0.000000
    13  H    2.539416   1.774963   0.000000
    14  H    2.632401   3.100699   2.528222   0.000000
    15  H    3.099627   2.556924   3.098331   1.773578   0.000000
    16  H    4.968443   3.812012   3.915667   2.538366   2.452924
    17  H    4.830861   2.614890   3.234921   3.100769   2.538685
    18  H    5.950562   4.409796   3.970616   3.839054   4.378923
    19  H    4.734608   4.163990   3.165834   2.643706   3.838596
    20  H    4.720404   3.186644   2.410956   3.279079   3.953925
                   16         17         18         19         20
    16  H    0.000000
    17  H    1.772890   0.000000
    18  H    2.491962   2.555072   0.000000
    19  H    2.572374   3.111346   1.781861   0.000000
    20  H    3.109157   2.535896   1.778822   1.781910   0.000000
 Stoichiometry    C6H14
 Framework group  C1[X(C6H14)]
 Deg. of freedom    54
 Full point group                 C1      NOp   1
 Largest Abelian subgroup         C1      NOp   1
 Largest concise Abelian subgroup C1      NOp   1
                         Standard orientation:                         
 ---------------------------------------------------------------------
 Center     Atomic      Atomic             Coordinates (Angstroms)
 Number     Number       Type             X           Y           Z
 ---------------------------------------------------------------------
      1          6           0       -3.045471    0.546267    0.114861
      2          6           0       -1.874535   -0.415519   -0.270568
      3          6           0       -0.473558    0.097217    0.211251
      4          6           0        0.696749   -0.868509   -0.180741
      5          6           0        2.104149   -0.437231    0.365267
      6          6           0        2.640530    0.905494   -0.226748
      7          1           0       -3.107918    0.671077    1.207698
      8          1           0       -4.014704    0.156710   -0.237327
      9          1           0       -2.899095    1.542853   -0.331453
     10          1           0       -2.062704   -1.414030    0.164122
     11          1           0       -1.853045   -0.544676   -1.367944
     12          1           0       -0.491074    0.219951    1.309277
     13          1           0       -0.291156    1.096615   -0.221078
     14          1           0        0.746467   -0.950424   -1.281678
     15          1           0        0.462419   -1.878652    0.202670
     16          1           0        2.829977   -1.240336    0.138970
     17          1           0        2.054351   -0.357730    1.466580
     18          1           0        3.663990    1.107896    0.128896
     19          1           0        2.666117    0.866724   -1.327508
     20          1           0        2.009194    1.757706    0.068845
 ---------------------------------------------------------------------
 Rotational constants (GHZ):      8.4461078      1.2815135      1.1924478
 Standard basis: STO-3G (5D, 7F)
 There are    44 symmetry adapted cartesian basis functions of A   symmetry.
 There are    44 symmetry adapted basis functions of A   symmetry.
    44 basis functions,   132 primitive gaussians,    44 cartesian basis functions
    25 alpha electrons       25 beta electrons
       nuclear repulsion energy       242.5765210447 Hartrees.
 NAtoms=   20 NActive=   20 NUniq=   20 SFac= 1.00D+00 NAtFMM=   60 NAOKFM=F Big=F
 Integral buffers will be    131072 words long.
 Raffenetti 2 integral format.
 Two-electron integral symmetry is turned on.
 One-electron integrals computed using PRISM.
 NBasis=    44 RedAO= T EigKep=  2.10D-01  NBF=    44
 NBsUse=    44 1.00D-06 EigRej= -1.00D+00 NBFU=    44
 Initial guess from the checkpoint file:  "/data/trash/Gau-23030.chk"
 B after Tr=     0.000000    0.000000    0.000000
         Rot=    0.999994   -0.003424    0.000319   -0.000048 Ang=  -0.39 deg.
 ExpMin= 1.69D-01 ExpMax= 7.16D+01 ExpMxC= 7.16D+01 IAcc=1 IRadAn=         1 AccDes= 0.00D+00
 Harris functional with IExCor=  402 and IRadAn=       1 diagonalized for initial guess.
 HarFok:  IExCor=  402 AccDes= 0.00D+00 IRadAn=         1 IDoV= 1 UseB2=F ITyADJ=14
 ICtDFT=  3500011 ScaDFX=  1.000000  1.000000  1.000000  1.000000
 FoFCou: FMM=F IPFlag=           0 FMFlag=      100000 FMFlg1=           0
         NFxFlg=           0 DoJE=T BraDBF=F KetDBF=T FulRan=T
         wScrn=  0.000000 ICntrl=     500 IOpCl=  0 I1Cent=   200000004 NGrid=           0
         NMat0=    1 NMatS0=      1 NMatT0=    0 NMatD0=    1 NMtDS0=    0 NMtDT0=    0
 Petite list used in FoFCou.
 Keep R1 ints in memory in canonical form, NReq=1381411.
 Requested convergence on RMS density matrix=1.00D-08 within 128 cycles.
 Requested convergence on MAX density matrix=1.00D-06.
 Requested convergence on             energy=1.00D-06.
 No special actions if energy rises.
 Integral accuracy reduced to 1.0D-05 until final iterations.
 Initial convergence to 1.0D-05 achieved.  Increase integral accuracy.
 SCF Done:  E(RB3LYP) =  -234.277050349     A.U. after    9 cycles
            NFock=  9  Conv=0.38D-08     -V/T= 2.0184
 Calling FoFJK, ICntrl=      2127 FMM=F ISym2X=0 I1Cent= 0 IOpClX= 0 NMat=1 NMatS=1 NMatT=0.
 ***** Axes restored to original set *****
 -------------------------------------------------------------------
 Center     Atomic                   Forces (Hartrees/Bohr)
 Number     Number              X              Y              Z
 -------------------------------------------------------------------
      1        6           0.001492228   -0.001025742    0.001610725
      2        6           0.000246487   -0.000756460   -0.000090629
      3        6           0.000157294    0.001560183    0.000977123
      4        6           0.000116874    0.000874456   -0.001792329
      5        6          -0.000415841    0.001851113    0.000329124
      6        6          -0.000895444    0.000053088   -0.000992846
      7        1           0.000486755   -0.000934552    0.000000675
      8        1           0.000951119   -0.001992682    0.000394374
      9        1           0.000281726   -0.001039499    0.000160351
     10        1           0.000052464    0.000880798    0.000379422
     11        1          -0.000065177    0.000865516    0.000403038
     12        1          -0.000139408   -0.000480865   -0.000451193
     13        1           0.000058798   -0.000560789   -0.000141571
     14        1           0.000077577    0.000607559    0.000396406
     15        1           0.000807552    0.000284214    0.001224714
     16        1          -0.000165005    0.001048889   -0.001349128
     17        1           0.000599382    0.000713239   -0.000489722
     18        1          -0.001631056   -0.000790525   -0.000314459
     19        1          -0.000883041   -0.000464675    0.000138101
     20        1          -0.001133284   -0.000693266   -0.000392173
 -------------------------------------------------------------------
 Cartesian Forces:  Max     0.001992682 RMS     0.000841752

 GradGradGradGradGradGradGradGradGradGradGradGradGradGradGradGradGradGrad
 Berny optimization.
 Using GEDIIS/GDIIS optimizer.
 FormGI is forming the generalized inverse of G from B-inverse, IUseBI=4.
 Internal  Forces:  Max     0.005951485 RMS     0.001497154
 Search for a local minimum.
 Step number   2 out of a maximum of  110
 All quantities printed in internal units (Hartrees-Bohrs-Radians)
 Mixed Optimization -- RFO/linear search
 Update second derivatives using D2CorX and points    1    2
 DE= -3.94D-03 DEPred=-5.70D-03 R= 6.92D-01
 TightC=F SS=  1.41D+00  RLast= 2.00D-01 DXNew= 5.0454D-01 6.0115D-01
 Trust test= 6.92D-01 RLast= 2.00D-01 DXMaxT set to 5.05D-01
 ITU=  1  0
 Use linear search instead of GDIIS.
     Eigenvalues ---    0.00365   0.00367   0.00378   0.00490   0.00496
     Eigenvalues ---    0.03386   0.03441   0.03530   0.03557   0.04810
     Eigenvalues ---    0.04847   0.04863   0.04938   0.05560   0.05587
     Eigenvalues ---    0.05632   0.05638   0.08363   0.08448   0.08623
     Eigenvalues ---    0.08634   0.12223   0.12270   0.12411   0.12430
     Eigenvalues ---    0.15977   0.16000   0.16000   0.16000   0.16000
     Eigenvalues ---    0.16081   0.21924   0.21930   0.21951   0.22374
     Eigenvalues ---    0.29399   0.29455   0.29888   0.30292   0.33596
     Eigenvalues ---    0.34009   0.34032   0.34045   0.34076   0.34103
     Eigenvalues ---    0.34105   0.34142   0.34206   0.34267   0.34278
     Eigenvalues ---    0.34285   0.34292   0.34364   0.37665
 RFO step:  Lambda=-2.33438079D-04 EMin= 3.64926353D-03
 Quartic linear search produced a step of -0.21059.
 Iteration  1 RMS(Cart)=  0.02385008 RMS(Int)=  0.00007740
 Iteration  2 RMS(Cart)=  0.00009945 RMS(Int)=  0.00001270
 Iteration  3 RMS(Cart)=  0.00000001 RMS(Int)=  0.00001270
 Variable       Old X    -DE/DX   Delta X   Delta X   Delta X     New X
                                 (Linear)    (Quad)   (Total)
    R1        2.95467  -0.00595  -0.01715   0.00273  -0.01443   2.94025
    R2        2.08193  -0.00048  -0.00280   0.00188  -0.00092   2.08102
    R3        2.08317  -0.00107  -0.00313   0.00087  -0.00226   2.08091
    R4        2.08196  -0.00050  -0.00280   0.00185  -0.00096   2.08101
    R5        2.96259  -0.00484  -0.01528   0.00325  -0.01203   2.95056
    R6        2.08846  -0.00059  -0.00356   0.00244  -0.00112   2.08734
    R7        2.08845  -0.00057  -0.00355   0.00248  -0.00108   2.08737
    R8        2.96145  -0.00472  -0.01465   0.00287  -0.01179   2.94966
    R9        2.08815  -0.00042  -0.00331   0.00256  -0.00075   2.08741
   R10        2.08639  -0.00031  -0.00329   0.00279  -0.00050   2.08590
   R11        2.96687  -0.00533  -0.01585   0.00251  -0.01334   2.95353
   R12        2.08833  -0.00041  -0.00328   0.00256  -0.00072   2.08761
   R13        2.08924  -0.00079  -0.00337   0.00177  -0.00160   2.08764
   R14        2.95251  -0.00490  -0.01653   0.00477  -0.01176   2.94075
   R15        2.08985  -0.00111  -0.00370   0.00138  -0.00232   2.08753
   R16        2.08872  -0.00058  -0.00362   0.00252  -0.00110   2.08762
   R17        2.08292  -0.00095  -0.00296   0.00097  -0.00200   2.08092
   R18        2.08199  -0.00052  -0.00287   0.00187  -0.00100   2.08099
   R19        2.08061  -0.00051  -0.00285   0.00187  -0.00098   2.07963
    A1        1.93549  -0.00065   0.00038  -0.00315  -0.00278   1.93271
    A2        1.94155  -0.00245  -0.00361  -0.00924  -0.01288   1.92867
    A3        1.93592  -0.00070   0.00030  -0.00336  -0.00306   1.93286
    A4        1.88295   0.00155   0.00073   0.00610   0.00680   1.88975
    A5        1.88273   0.00090   0.00161   0.00441   0.00603   1.88875
    A6        1.88289   0.00157   0.00072   0.00613   0.00682   1.88971
    A7        1.97392  -0.00307  -0.00588  -0.00746  -0.01336   1.96056
    A8        1.90848   0.00062  -0.00086   0.00018  -0.00070   1.90778
    A9        1.90840   0.00060  -0.00068   0.00004  -0.00066   1.90774
   A10        1.90367   0.00103   0.00298   0.00056   0.00355   1.90722
   A11        1.90288   0.00107   0.00303   0.00096   0.00399   1.90687
   A12        1.86322  -0.00009   0.00176   0.00654   0.00832   1.87154
   A13        1.97027  -0.00349  -0.00616  -0.00841  -0.01458   1.95568
   A14        1.90451   0.00098   0.00155   0.00096   0.00249   1.90700
   A15        1.90005   0.00119   0.00079   0.00285   0.00362   1.90367
   A16        1.90587   0.00098   0.00149   0.00063   0.00211   1.90798
   A17        1.91399   0.00078   0.00141  -0.00070   0.00072   1.91470
   A18        1.86626  -0.00028   0.00125   0.00544   0.00668   1.87294
   A19        1.99673  -0.00335  -0.00387  -0.01057  -0.01447   1.98226
   A20        1.90548   0.00077   0.00202   0.00040   0.00239   1.90787
   A21        1.89443   0.00151   0.00196   0.00366   0.00558   1.90002
   A22        1.90339   0.00115   0.00192   0.00148   0.00338   1.90677
   A23        1.89693   0.00021  -0.00192  -0.00225  -0.00417   1.89275
   A24        1.86220  -0.00010   0.00009   0.00862   0.00871   1.87091
   A25        1.99550  -0.00243  -0.00288  -0.00841  -0.01131   1.98419
   A26        1.89410   0.00010  -0.00033  -0.00332  -0.00365   1.89045
   A27        1.90275   0.00101   0.00328   0.00093   0.00419   1.90695
   A28        1.89783   0.00098  -0.00091   0.00304   0.00209   1.89993
   A29        1.90837   0.00033   0.00035  -0.00027   0.00007   1.90844
   A30        1.86052   0.00017   0.00067   0.00928   0.00995   1.87047
   A31        1.93299  -0.00179  -0.00261  -0.00632  -0.00894   1.92404
   A32        1.93511  -0.00062   0.00068  -0.00360  -0.00293   1.93218
   A33        1.94616  -0.00122   0.00008  -0.00607  -0.00599   1.94017
   A34        1.88312   0.00126   0.00045   0.00567   0.00610   1.88922
   A35        1.87934   0.00159  -0.00039   0.00794   0.00753   1.88688
   A36        1.88472   0.00099   0.00185   0.00328   0.00513   1.88984
    D1       -1.04518  -0.00011  -0.00117  -0.00067  -0.00183  -1.04701
    D2        1.07980  -0.00042  -0.00188  -0.00488  -0.00675   1.07306
    D3        3.11409   0.00016  -0.00064   0.00311   0.00249   3.11658
    D4       -3.14084   0.00001   0.00004  -0.00010  -0.00005  -3.14090
    D5       -1.01586  -0.00030  -0.00067  -0.00430  -0.00497  -1.02083
    D6        1.01843   0.00028   0.00058   0.00369   0.00427   1.02269
    D7        1.04647   0.00014   0.00132   0.00057   0.00189   1.04836
    D8       -3.11173  -0.00017   0.00061  -0.00363  -0.00303  -3.11476
    D9       -1.07745   0.00041   0.00186   0.00436   0.00621  -1.07124
   D10       -3.13905   0.00003   0.00013  -0.00113  -0.00099  -3.14004
   D11        1.02163   0.00041   0.00124   0.00300   0.00424   1.02587
   D12       -1.00938  -0.00046  -0.00158  -0.00561  -0.00719  -1.01657
   D13        1.01645   0.00056   0.00306   0.00326   0.00631   1.02276
   D14       -1.10605   0.00094   0.00417   0.00739   0.01154  -1.09451
   D15       -3.13706   0.00007   0.00135  -0.00122   0.00011  -3.13695
   D16       -1.01204  -0.00050  -0.00253  -0.00540  -0.00791  -1.01995
   D17       -3.13454  -0.00012  -0.00142  -0.00127  -0.00268  -3.13722
   D18        1.11763  -0.00098  -0.00424  -0.00988  -0.01411   1.10352
   D19       -3.07531   0.00017   0.00218  -0.01040  -0.00821  -3.08352
   D20        1.06975   0.00043   0.00089  -0.00521  -0.00431   1.06544
   D21       -0.95384  -0.00070  -0.00144  -0.01769  -0.01914  -0.97298
   D22       -0.95358  -0.00022   0.00110  -0.01435  -0.01323  -0.96681
   D23       -3.09170   0.00005  -0.00018  -0.00916  -0.00934  -3.10103
   D24        1.16790  -0.00109  -0.00251  -0.02165  -0.02416   1.14374
   D25        1.08605   0.00045   0.00431  -0.00783  -0.00352   1.08253
   D26       -1.05206   0.00072   0.00303  -0.00264   0.00038  -1.05169
   D27       -3.07566  -0.00041   0.00070  -0.01513  -0.01445  -3.09011
   D28       -1.13710   0.00016  -0.00147  -0.00007  -0.00152  -1.13862
   D29        3.02452   0.00045   0.00183   0.00410   0.00593   3.03044
   D30        1.00457  -0.00035  -0.00057  -0.00561  -0.00616   0.99841
   D31        1.00215  -0.00031  -0.00012  -0.00583  -0.00594   0.99621
   D32       -1.11942  -0.00002   0.00317  -0.00166   0.00150  -1.11791
   D33       -3.13936  -0.00081   0.00078  -0.01137  -0.01058   3.13324
   D34        3.02598   0.00032  -0.00004   0.00400   0.00396   3.02995
   D35        0.90442   0.00061   0.00326   0.00817   0.01141   0.91582
   D36       -1.11553  -0.00019   0.00087  -0.00154  -0.00068  -1.11621
   D37       -3.05731   0.00013   0.00258  -0.00917  -0.00657  -3.06389
   D38       -0.96735   0.00013   0.00188  -0.00856  -0.00666  -0.97402
   D39        1.13338   0.00014   0.00475  -0.01093  -0.00617   1.12721
   D40       -0.93780  -0.00065  -0.00040  -0.01686  -0.01727  -0.95508
   D41        1.15216  -0.00065  -0.00111  -0.01625  -0.01736   1.13480
   D42       -3.03029  -0.00064   0.00177  -0.01862  -0.01687  -3.04716
   D43        1.08725   0.00027   0.00008  -0.00424  -0.00416   1.08309
   D44       -3.10597   0.00028  -0.00062  -0.00363  -0.00425  -3.11022
   D45       -1.00524   0.00028   0.00225  -0.00600  -0.00376  -1.00900
         Item               Value     Threshold  Converged?
 Maximum Force            0.005951     0.000450     NO 
 RMS     Force            0.001497     0.000300     NO 
 Maximum Displacement     0.075254     0.001800     NO 
 RMS     Displacement     0.023873     0.001200     NO 
 Predicted change in Energy=-3.778505D-04
 GradGradGradGradGradGradGradGradGradGradGradGradGradGradGradGradGradGrad

                          Input orientation:                          
 ---------------------------------------------------------------------
 Center     Atomic      Atomic             Coordinates (Angstroms)
 Number     Number       Type             X           Y           Z
 ---------------------------------------------------------------------
      1          6           0       -0.030055   -1.539672   -2.255616
      2          6           0        0.530580   -2.987522   -2.154215
      3          6           0        1.475123   -3.173235   -0.924899
      4          6           0        2.035457   -4.627040   -0.830714
      5          6           0        2.920165   -4.875294    0.433584
      6          6           0        4.237913   -4.047612    0.446803
      7          1           0       -0.608802   -1.281694   -1.354950
      8          1           0       -0.691475   -1.442554   -3.130637
      9          1           0        0.788808   -0.810678   -2.359169
     10          1           0       -0.309967   -3.700215   -2.079179
     11          1           0        1.083995   -3.230421   -3.078796
     12          1           0        0.920507   -2.934717    0.000125
     13          1           0        2.311042   -2.456384   -1.000776
     14          1           0        2.625280   -4.850731   -1.737614
     15          1           0        1.188217   -5.335663   -0.809124
     16          1           0        3.173026   -5.949848    0.474771
     17          1           0        2.333236   -4.643388    1.340303
     18          1           0        4.852370   -4.323560    1.317944
     19          1           0        4.826373   -4.237897   -0.464335
     20          1           0        4.028845   -2.968654    0.503635
 ---------------------------------------------------------------------
                    Distance matrix (angstroms):
                    1          2          3          4          5
     1  C    0.000000
     2  C    1.555913   0.000000
     3  C    2.589382   1.561368   0.000000
     4  C    3.978508   2.589272   1.560895   0.000000
     5  C    5.202111   3.996311   2.613546   1.562942   0.000000
     6  C    5.639891   4.651172   3.206104   2.611244   1.556178
     7  H    1.101226   2.201560   2.847037   4.296309   5.344756
     8  H    1.101168   2.198578   3.543259   4.781920   6.126280
     9  H    1.101222   2.201667   2.847777   4.295920   5.372453
    10  H    2.185733   1.104572   2.190118   2.814016   4.257762
    11  H    2.185718   1.104589   2.189869   2.812419   4.291147
    12  H    2.817460   2.189980   1.104608   2.190289   2.819992
    13  H    2.809932   2.186910   1.103808   2.194679   2.877419
    14  H    4.275774   2.834232   2.190287   1.104715   2.191269
    15  H    4.240999   2.784874   2.184448   1.104730   2.180804
    16  H    6.096260   4.761246   3.542813   2.179030   1.104673
    17  H    5.305547   4.266511   2.833522   2.191405   1.104720
    18  H    6.660213   5.702522   4.214189   3.555816   2.195432
    19  H    5.837294   4.782569   3.546336   2.841633   2.201400
    20  H    5.111763   4.393447   2.933267   2.916218   2.206661
                    6          7          8          9         10
     6  C    0.000000
     7  H    5.864065   0.000000
     8  H    6.624444   1.784874   0.000000
     9  H    5.499777   1.784272   1.784844   0.000000
    10  H    5.213873   2.542254   2.519552   3.104049   0.000000
    11  H    4.800505   3.103988   2.520207   2.541683   1.778501
    12  H    3.527497   2.628212   3.824487   3.177287   2.534474
    13  H    2.887961   3.167148   3.818281   2.621217   3.095118
    14  H    2.831477   4.831536   4.955506   4.481182   3.171124
    15  H    3.540773   4.467871   4.907032   4.799756   2.555834
    16  H    2.180199   6.280268   6.946152   6.334570   4.869779
    17  H    2.186569   5.217371   6.275629   5.546262   4.423681
    18  H    1.101178   6.798655   7.669699   6.509535   6.211178
    19  H    1.101212   6.250877   6.735707   5.624781   5.410990
    20  H    1.100495   5.273323   6.149661   4.832219   5.102097
                   11         12         13         14         15
    11  H    0.000000
    12  H    3.097405   0.000000
    13  H    2.534353   1.778817   0.000000
    14  H    2.607630   3.097918   2.524792   0.000000
    15  H    3.097470   2.547763   3.096403   1.778314   0.000000
    16  H    4.938337   3.793434   3.889028   2.530362   2.442351
    17  H    4.804739   2.590644   3.203768   3.098686   2.531867
    18  H    5.892956   4.373223   3.914225   3.817627   4.356006
    19  H    4.675020   4.143645   3.128649   2.615649   3.815777
    20  H    4.644833   3.149037   2.340196   3.245829   3.923676
                   16         17         18         19         20
    16  H    0.000000
    17  H    1.777985   0.000000
    18  H    2.485146   2.539454   0.000000
    19  H    2.558565   3.104332   1.784526   0.000000
    20  H    3.101738   2.525834   1.782432   1.784375   0.000000
 Stoichiometry    C6H14
 Framework group  C1[X(C6H14)]
 Deg. of freedom    54
 Full point group                 C1      NOp   1
 Largest Abelian subgroup         C1      NOp   1
 Largest concise Abelian subgroup C1      NOp   1
                         Standard orientation:                         
 ---------------------------------------------------------------------
 Center     Atomic      Atomic             Coordinates (Angstroms)
 Number     Number       Type             X           Y           Z
 ---------------------------------------------------------------------
      1          6           0       -3.014125    0.545383    0.116474
      2          6           0       -1.855387   -0.415935   -0.276034
      3          6           0       -0.465910    0.096877    0.218180
      4          6           0        0.691803   -0.871021   -0.180904
      5          6           0        2.088787   -0.434122    0.367128
      6          6           0        2.603410    0.907133   -0.231112
      7          1           0       -3.075174    0.656203    1.210408
      8          1           0       -3.978223    0.155359   -0.245420
      9          1           0       -2.858686    1.543293   -0.322508
     10          1           0       -2.048830   -1.415310    0.152812
     11          1           0       -1.831880   -0.530169   -1.374449
     12          1           0       -0.487858    0.206850    1.317081
     13          1           0       -0.278182    1.097478   -0.208373
     14          1           0        0.740359   -0.948199   -1.281850
     15          1           0        0.463847   -1.879800    0.207466
     16          1           0        2.817442   -1.231374    0.135284
     17          1           0        2.038088   -0.348531    1.467359
     18          1           0        3.621221    1.120194    0.131183
     19          1           0        2.632296    0.857292   -1.330816
     20          1           0        1.954114    1.746828    0.059433
 ---------------------------------------------------------------------
 Rotational constants (GHZ):      8.4292158      1.3080167      1.2159661
 Standard basis: STO-3G (5D, 7F)
 There are    44 symmetry adapted cartesian basis functions of A   symmetry.
 There are    44 symmetry adapted basis functions of A   symmetry.
    44 basis functions,   132 primitive gaussians,    44 cartesian basis functions
    25 alpha electrons       25 beta electrons
       nuclear repulsion energy       243.9207923626 Hartrees.
 NAtoms=   20 NActive=   20 NUniq=   20 SFac= 1.00D+00 NAtFMM=   60 NAOKFM=F Big=F
 Integral buffers will be    131072 words long.
 Raffenetti 2 integral format.
 Two-electron integral symmetry is turned on.
 One-electron integrals computed using PRISM.
 NBasis=    44 RedAO= T EigKep=  2.08D-01  NBF=    44
 NBsUse=    44 1.00D-06 EigRej= -1.00D+00 NBFU=    44
 Initial guess from the checkpoint file:  "/data/trash/Gau-23030.chk"
 B after Tr=     0.000000    0.000000    0.000000
         Rot=    1.000000   -0.000528   -0.000139   -0.000589 Ang=  -0.09 deg.
 ExpMin= 1.69D-01 ExpMax= 7.16D+01 ExpMxC= 7.16D+01 IAcc=1 IRadAn=         1 AccDes= 0.00D+00
 Harris functional with IExCor=  402 and IRadAn=       1 diagonalized for initial guess.
 HarFok:  IExCor=  402 AccDes= 0.00D+00 IRadAn=         1 IDoV= 1 UseB2=F ITyADJ=14
 ICtDFT=  3500011 ScaDFX=  1.000000  1.000000  1.000000  1.000000
 FoFCou: FMM=F IPFlag=           0 FMFlag=      100000 FMFlg1=           0
         NFxFlg=           0 DoJE=T BraDBF=F KetDBF=T FulRan=T
         wScrn=  0.000000 ICntrl=     500 IOpCl=  0 I1Cent=   200000004 NGrid=           0
         NMat0=    1 NMatS0=      1 NMatT0=    0 NMatD0=    1 NMtDS0=    0 NMtDT0=    0
 Petite list used in FoFCou.
 Keep R1 ints in memory in canonical form, NReq=1381411.
 Requested convergence on RMS density matrix=1.00D-08 within 128 cycles.
 Requested convergence on MAX density matrix=1.00D-06.
 Requested convergence on             energy=1.00D-06.
 No special actions if energy rises.
 Integral accuracy reduced to 1.0D-05 until final iterations.
 Initial convergence to 1.0D-05 achieved.  Increase integral accuracy.
 SCF Done:  E(RB3LYP) =  -234.277437662     A.U. after    9 cycles
            NFock=  9  Conv=0.48D-08     -V/T= 2.0182
 Calling FoFJK, ICntrl=      2127 FMM=F ISym2X=0 I1Cent= 0 IOpClX= 0 NMat=1 NMatS=1 NMatT=0.
 ***** Axes restored to original set *****
 -------------------------------------------------------------------
 Center     Atomic                   Forces (Hartrees/Bohr)
 Number     Number              X              Y              Z
 -------------------------------------------------------------------
      1        6          -0.000252938    0.000238634   -0.000239527
      2        6           0.000073379    0.000095633    0.000098278
      3        6          -0.000076978   -0.000038546   -0.000171454
      4        6          -0.000202349    0.000016753    0.000040060
      5        6           0.000162728   -0.000290395    0.000020063
      6        6           0.000333361    0.000069796    0.000207554
      7        1           0.000210299   -0.000117766   -0.000231643
      8        1           0.000064654    0.000151723    0.000164029
      9        1          -0.000201127   -0.000259011    0.000072040
     10        1           0.000374572    0.000152182   -0.000011421
     11        1          -0.000179537   -0.000012158    0.000351339
     12        1           0.000146189   -0.000093243   -0.000339217
     13        1          -0.000407608   -0.000276567    0.000042206
     14        1          -0.000236243    0.000127018    0.000353162
     15        1           0.000185734    0.000281315   -0.000159447
     16        1           0.000007033    0.000280133    0.000181520
     17        1           0.000228923   -0.000094908   -0.000361581
     18        1          -0.000083073    0.000183822   -0.000155491
     19        1          -0.000183989   -0.000045092    0.000243014
     20        1           0.000036970   -0.000369324   -0.000103485
 -------------------------------------------------------------------
 Cartesian Forces:  Max     0.000407608 RMS     0.000203618

 GradGradGradGradGradGradGradGradGradGradGradGradGradGradGradGradGradGrad
 Berny optimization.
 Using GEDIIS/GDIIS optimizer.
 FormGI is forming the generalized inverse of G from B-inverse, IUseBI=4.
 Internal  Forces:  Max     0.000491008 RMS     0.000172550
 Search for a local minimum.
 Step number   3 out of a maximum of  110
 All quantities printed in internal units (Hartrees-Bohrs-Radians)
 Mixed Optimization -- En-DIIS/RFO-DIIS
 Update second derivatives using D2CorX and points    1    2    3
 DE= -3.87D-04 DEPred=-3.78D-04 R= 1.03D+00
 TightC=F SS=  1.41D+00  RLast= 7.86D-02 DXNew= 8.4853D-01 2.3573D-01
 Trust test= 1.03D+00 RLast= 7.86D-02 DXMaxT set to 5.05D-01
 ITU=  1  1  0
 Use linear search instead of GDIIS.
     Eigenvalues ---    0.00363   0.00368   0.00378   0.00488   0.00496
     Eigenvalues ---    0.03474   0.03516   0.03619   0.03643   0.04850
     Eigenvalues ---    0.04869   0.04900   0.04967   0.05615   0.05674
     Eigenvalues ---    0.05683   0.05706   0.08218   0.08311   0.08482
     Eigenvalues ---    0.08523   0.12116   0.12166   0.12308   0.12419
     Eigenvalues ---    0.15864   0.16000   0.16000   0.16000   0.16000
     Eigenvalues ---    0.16344   0.21925   0.21937   0.21955   0.23235
     Eigenvalues ---    0.29386   0.29450   0.29889   0.30291   0.33357
     Eigenvalues ---    0.33998   0.34041   0.34044   0.34068   0.34103
     Eigenvalues ---    0.34104   0.34130   0.34245   0.34252   0.34278
     Eigenvalues ---    0.34285   0.34290   0.34357   0.36314
 RFO step:  Lambda=-2.42270581D-05 EMin= 3.63499303D-03
 Quartic linear search produced a step of -0.03464.
 Iteration  1 RMS(Cart)=  0.01157166 RMS(Int)=  0.00006556
 Iteration  2 RMS(Cart)=  0.00007768 RMS(Int)=  0.00000054
 Iteration  3 RMS(Cart)=  0.00000000 RMS(Int)=  0.00000054
 Variable       Old X    -DE/DX   Delta X   Delta X   Delta X     New X
                                 (Linear)    (Quad)   (Total)
    R1        2.94025   0.00010   0.00050  -0.00067  -0.00017   2.94008
    R2        2.08102  -0.00033   0.00003  -0.00098  -0.00095   2.08007
    R3        2.08091  -0.00016   0.00008  -0.00060  -0.00052   2.08039
    R4        2.08101  -0.00032   0.00003  -0.00098  -0.00094   2.08006
    R5        2.95056  -0.00019   0.00042  -0.00145  -0.00104   2.94952
    R6        2.08734  -0.00039   0.00004  -0.00117  -0.00113   2.08621
    R7        2.08737  -0.00038   0.00004  -0.00115  -0.00111   2.08626
    R8        2.94966  -0.00003   0.00041  -0.00090  -0.00049   2.94918
    R9        2.08741  -0.00038   0.00003  -0.00112  -0.00110   2.08631
   R10        2.08590  -0.00049   0.00002  -0.00142  -0.00140   2.08449
   R11        2.95353   0.00035   0.00046   0.00022   0.00069   2.95422
   R12        2.08761  -0.00044   0.00003  -0.00130  -0.00127   2.08634
   R13        2.08764  -0.00033   0.00006  -0.00103  -0.00098   2.08666
   R14        2.94075  -0.00001   0.00041  -0.00084  -0.00044   2.94032
   R15        2.08753  -0.00026   0.00008  -0.00090  -0.00082   2.08671
   R16        2.08762  -0.00044   0.00004  -0.00132  -0.00128   2.08634
   R17        2.08092  -0.00021   0.00007  -0.00074  -0.00067   2.08026
   R18        2.08099  -0.00029   0.00003  -0.00089  -0.00086   2.08013
   R19        2.07963  -0.00038   0.00003  -0.00112  -0.00109   2.07854
    A1        1.93271  -0.00012   0.00010  -0.00112  -0.00102   1.93168
    A2        1.92867   0.00031   0.00045   0.00141   0.00186   1.93054
    A3        1.93286  -0.00013   0.00011  -0.00116  -0.00105   1.93181
    A4        1.88975  -0.00006  -0.00024   0.00047   0.00023   1.88998
    A5        1.88875   0.00005  -0.00021  -0.00006  -0.00027   1.88848
    A6        1.88971  -0.00005  -0.00024   0.00050   0.00026   1.88997
    A7        1.96056   0.00024   0.00046   0.00040   0.00086   1.96143
    A8        1.90778   0.00000   0.00002   0.00055   0.00057   1.90835
    A9        1.90774  -0.00001   0.00002   0.00043   0.00046   1.90820
   A10        1.90722  -0.00013  -0.00012  -0.00070  -0.00083   1.90640
   A11        1.90687  -0.00011  -0.00014  -0.00048  -0.00062   1.90625
   A12        1.87154   0.00001  -0.00029  -0.00023  -0.00052   1.87103
   A13        1.95568   0.00025   0.00051   0.00023   0.00073   1.95642
   A14        1.90700  -0.00008  -0.00009  -0.00031  -0.00040   1.90661
[...]
 ! D20   D(2,3,4,14)            59.949          -DE/DX =    0.0                 !
 ! D21   D(2,3,4,15)           -56.7393         -DE/DX =    0.0                 !
 ! D22   D(12,3,4,5)           -56.4982         -DE/DX =    0.0                 !
 ! D23   D(12,3,4,14)         -178.7921         -DE/DX =    0.0                 !
 ! D24   D(12,3,4,15)           64.5196         -DE/DX =    0.0                 !
 ! D25   D(13,3,4,5)            60.8985         -DE/DX =    0.0                 !
 ! D26   D(13,3,4,14)          -61.3954         -DE/DX =    0.0                 !
 ! D27   D(13,3,4,15)         -178.0837         -DE/DX =    0.0                 !
 ! D28   D(3,4,5,6)            -67.0385         -DE/DX =    0.0                 !
 ! D29   D(3,4,5,16)           171.8057         -DE/DX =    0.0                 !
 ! D30   D(3,4,5,17)            55.3797         -DE/DX =    0.0                 !
 ! D31   D(14,4,5,6)            55.2978         -DE/DX =    0.0                 !
 ! D32   D(14,4,5,16)          -65.858          -DE/DX =    0.0                 !
 ! D33   D(14,4,5,17)          177.716          -DE/DX =    0.0                 !
 ! D34   D(15,4,5,6)           171.826          -DE/DX =    0.0                 !
 ! D35   D(15,4,5,16)           50.6702         -DE/DX =    0.0                 !
 ! D36   D(15,4,5,17)          -65.7557         -DE/DX =    0.0                 !
 ! D37   D(4,5,6,18)          -177.2501         -DE/DX =    0.0                 !
 ! D38   D(4,5,6,19)           -57.4834         -DE/DX =    0.0                 !
 ! D39   D(4,5,6,20)            62.8328         -DE/DX =    0.0                 !
 ! D40   D(16,5,6,18)          -56.2912         -DE/DX =    0.0                 !
 ! D41   D(16,5,6,19)           63.4755         -DE/DX =    0.0                 !
 ! D42   D(16,5,6,20)         -176.2084         -DE/DX =    0.0                 !
 ! D43   D(17,5,6,18)           60.4114         -DE/DX =    0.0                 !
 ! D44   D(17,5,6,19)         -179.8219         -DE/DX =    0.0                 !
 ! D45   D(17,5,6,20)          -59.5058         -DE/DX =    0.0                 !
 --------------------------------------------------------------------------------
 GradGradGradGradGradGradGradGradGradGradGradGradGradGradGradGradGradGrad

                          Input orientation:                          
 ---------------------------------------------------------------------
 Center     Atomic      Atomic             Coordinates (Angstroms)
 Number     Number       Type             X           Y           Z
 ---------------------------------------------------------------------
      1          6           0       -0.039372   -1.540592   -2.254478
      2          6           0        0.537867   -2.982362   -2.159690
      3          6           0        1.461756   -3.172048   -0.915803
      4          6           0        2.034058   -4.621251   -0.824989
      5          6           0        2.920660   -4.866848    0.439102
      6          6           0        4.252649   -4.062480    0.434195
      7          1           0       -0.638862   -1.302306   -1.362495
      8          1           0       -0.683939   -1.438651   -3.141146
      9          1           0        0.772365   -0.800956   -2.330791
     10          1           0       -0.293771   -3.706780   -2.108905
     11          1           0        1.111313   -3.207495   -3.075961
     12          1           0        0.888391   -2.948506    0.000926
     13          1           0        2.290981   -2.446340   -0.969071
     14          1           0        2.625698   -4.837637   -1.731822
     15          1           0        1.191803   -5.335223   -0.807438
     16          1           0        3.155725   -5.944285    0.497167
     17          1           0        2.341988   -4.611021    1.344045
     18          1           0        4.853767   -4.313160    1.321752
     19          1           0        4.845684   -4.299674   -0.462383
     20          1           0        4.061882   -2.979165    0.444927
 ---------------------------------------------------------------------
                    Distance matrix (angstroms):
                    1          2          3          4          5
     1  C    0.000000
     2  C    1.555921   0.000000
     3  C    2.589804   1.561028   0.000000
     4  C    3.979072   2.589590   1.560758   0.000000
     5  C    5.203955   3.997839   2.614673   1.563428   0.000000
     6  C    5.657767   4.657736   3.225592   2.611497   1.556029
     7  H    1.100818   2.200636   2.847466   4.295207   5.349945
     8  H    1.100927   2.199797   3.544125   4.783412   6.128935
     9  H    1.100818   2.200635   2.845967   4.295808   5.368329
    10  H    2.185929   1.104075   2.188905   2.811313   4.262706
    11  H    2.185744   1.104118   2.188687   2.813724   4.287524
    12  H    2.815992   2.189127   1.104134   2.189238   2.828808
    13  H    2.811262   2.185933   1.103225   2.194768   2.870246
    14  H    4.271566   2.825625   2.189711   1.104177   2.191065
    15  H    4.243695   2.791447   2.182646   1.104290   2.182243
    16  H    6.096942   4.762884   3.542783   2.180975   1.104308
    17  H    5.296015   4.264217   2.819993   2.190806   1.104187
    18  H    6.664786   5.702497   4.220727   3.557271   2.196030
    19  H    5.889645   4.813881   3.595567   2.853093   2.200018
    20  H    5.116303   4.382091   2.940994   2.901931   2.205849
                    6          7          8          9         10
     6  C    0.000000
     7  H    5.896909   0.000000
     8  H    6.636071   1.784439   0.000000
     9  H    5.513172   1.783398   1.784419   0.000000
    10  H    5.221476   2.541203   2.522333   3.103175   0.000000
    11  H    4.787503   3.103034   2.521108   2.541967   1.777285
    12  H    3.570279   2.627050   3.824199   3.172119   2.534536
    13  H    2.903310   3.169791   3.818834   2.620642   3.093359
    14  H    2.817705   4.826212   4.949040   4.482009   3.153462
    15  H    3.539817   4.463613   4.914049   4.801678   2.559799
    16  H    2.179081   6.277356   6.948458   6.334949   4.867962
    17  H    2.186172   5.211374   6.271930   5.521298   4.437087
    18  H    1.100882   6.814646   7.671144   6.506497   6.215646
    19  H    1.100820   6.314639   6.777754   5.685412   5.429231
    20  H    1.100036   5.308071   6.144584   4.823912   5.101293
                   11         12         13         14         15
    11  H    0.000000
    12  H    3.095804   0.000000
    13  H    2.531790   1.777730   0.000000
    14  H    2.599507   3.096687   2.532217   0.000000
    15  H    3.111254   2.538096   3.095152   1.777114   0.000000
    16  H    4.943368   3.789690   3.890149   2.544403   2.435147
    17  H    4.798010   2.584738   3.168431   3.097224   2.544852
    18  H    5.879485   4.396712   3.911619   3.816239   4.357527
    19  H    4.687128   4.207194   3.196575   2.613277   3.813433
    20  H    4.599418   3.204547   2.327957   3.202308   3.918773
                   16         17         18         19         20
    16  H    0.000000
    17  H    1.776784   0.000000
    18  H    2.494766   2.529477   0.000000
    19  H    2.545868   3.103000   1.784205   0.000000
    20  H    3.100933   2.535627   1.781980   1.783621   0.000000
 Stoichiometry    C6H14
 Framework group  C1[X(C6H14)]
 Deg. of freedom    54
 Full point group                 C1      NOp   1
 Largest Abelian subgroup         C1      NOp   1
 Largest concise Abelian subgroup C1      NOp   1
                         Standard orientation:                         
 ---------------------------------------------------------------------
 Center     Atomic      Atomic             Coordinates (Angstroms)
 Number     Number       Type             X           Y           Z
 ---------------------------------------------------------------------
      1          6           0       -3.019382    0.540543    0.119557
      2          6           0       -1.855090   -0.405836   -0.292366
      3          6           0       -0.471393    0.090982    0.232382
      4          6           0        0.691067   -0.864850   -0.181184
      5          6           0        2.086881   -0.430480    0.373194
      6          6           0        2.615688    0.899398   -0.237555
      7          1           0       -3.092211    0.613234    1.215555
      8          1           0       -3.979503    0.164506   -0.266193
      9          1           0       -2.858454    1.552723   -0.282186
     10          1           0       -2.050667   -1.418924    0.100552
     11          1           0       -1.819531   -0.483942   -1.393144
     12          1           0       -0.505872    0.167839    1.333298
     13          1           0       -0.279424    1.103589   -0.161164
     14          1           0        0.739891   -0.925061   -1.282637
     15          1           0        0.465672   -1.879838    0.190910
     16          1           0        2.813432   -1.234115    0.159202
     17          1           0        2.026628   -0.330460    1.471189
     18          1           0        3.619481    1.126839    0.153102
     19          1           0        2.681091    0.823749   -1.333823
     20          1           0        1.952834    1.741325    0.011167
 ---------------------------------------------------------------------
 Rotational constants (GHZ):      8.4722431      1.3021618      1.2139785

 **********************************************************************

            Population analysis using the SCF density.

 **********************************************************************

 Orbital symmetries:
       Occupied  (A) (A) (A) (A) (A) (A) (A) (A) (A) (A) (A) (A)
                 (A) (A) (A) (A) (A) (A) (A) (A) (A) (A) (A) (A)
                 (A)
       Virtual   (A) (A) (A) (A) (A) (A) (A) (A) (A) (A) (A) (A)
                 (A) (A) (A) (A) (A) (A) (A)
 The electronic state is 1-A.
 Alpha  occ. eigenvalues --  -10.00764 -10.00713 -10.00455 -10.00319  -9.99967
 Alpha  occ. eigenvalues --   -9.99914  -0.75672  -0.72037  -0.66362  -0.60538
 Alpha  occ. eigenvalues --   -0.55110  -0.53048  -0.43299  -0.41059  -0.39552
 Alpha  occ. eigenvalues --   -0.37342  -0.36958  -0.34474  -0.32850  -0.31933
 Alpha  occ. eigenvalues --   -0.30172  -0.29500  -0.28268  -0.27522  -0.26094
 Alpha virt. eigenvalues --    0.33926   0.36267   0.37953   0.39475   0.40221
 Alpha virt. eigenvalues --    0.41676   0.43249   0.44544   0.45342   0.47782
 Alpha virt. eigenvalues --    0.47927   0.48973   0.49390   0.50776   0.51200
 Alpha virt. eigenvalues --    0.51781   0.51881   0.53590   0.55099
          Condensed to atoms (all electrons):
               1          2          3          4          5          6
     1  C    4.785643   0.359490  -0.019953   0.000603  -0.000004   0.000000
     2  C    0.359490   4.776358   0.358402  -0.019199   0.000574   0.000005
     3  C   -0.019953   0.358402   4.788188   0.358561  -0.018522  -0.001607
     4  C    0.000603  -0.019199   0.358561   4.787923   0.357002  -0.019455
     5  C   -0.000004   0.000574  -0.018522   0.357002   4.776104   0.359659
     6  C    0.000000   0.000005  -0.001607  -0.019455   0.359659   4.785960
     7  H    0.379493  -0.019569  -0.001942   0.000006   0.000000   0.000000
     8  H    0.379548  -0.018570   0.001146  -0.000013   0.000000   0.000000
     9  H    0.379483  -0.019564  -0.001961   0.000006   0.000000   0.000000
    10  H   -0.021212   0.378127  -0.021358  -0.002005   0.000005   0.000000
    11  H   -0.021196   0.378106  -0.021319  -0.001934   0.000004   0.000001
    12  H   -0.001919  -0.021166   0.377429  -0.021314  -0.002028   0.000022
    13  H   -0.001933  -0.021381   0.377855  -0.020844  -0.001501  -0.000371
    14  H    0.000004  -0.001814  -0.021438   0.377244  -0.021243  -0.002375
    15  H    0.000007  -0.002232  -0.021762   0.377741  -0.020708   0.001140
    16  H    0.000000  -0.000012   0.001115  -0.020774   0.378312  -0.021715
    17  H    0.000000   0.000007  -0.002386  -0.021336   0.377815  -0.021431
    18  H    0.000000   0.000000   0.000015   0.001124  -0.018708   0.379642
    19  H    0.000000  -0.000002   0.000010  -0.002067  -0.019660   0.379379
    20  H    0.000000  -0.000004  -0.000354  -0.001488  -0.019233   0.379766
               7          8          9         10         11         12
     1  C    0.379493   0.379548   0.379483  -0.021212  -0.021196  -0.001919
     2  C   -0.019569  -0.018570  -0.019564   0.378127   0.378106  -0.021166
     3  C   -0.001942   0.001146  -0.001961  -0.021358  -0.021319   0.377429
     4  C    0.000006  -0.000013   0.000006  -0.002005  -0.001934  -0.021314
     5  C    0.000000   0.000000   0.000000   0.000005   0.000004  -0.002028
     6  C    0.000000   0.000000   0.000000   0.000000   0.000001   0.000022
     7  H    0.613548  -0.020914  -0.021161  -0.002178   0.001808   0.000532
     8  H   -0.020914   0.612468  -0.020911  -0.002043  -0.002064   0.000006
     9  H   -0.021161  -0.020911   0.613587   0.001808  -0.002164  -0.000012
    10  H   -0.002178  -0.002043   0.001808   0.625333  -0.022913  -0.002210
    11  H    0.001808  -0.002064  -0.002164  -0.022913   0.625152   0.001818
    12  H    0.000532   0.000006  -0.000012  -0.002210   0.001818   0.626842
    13  H   -0.000012   0.000006   0.000535   0.001822  -0.002218  -0.023000
    14  H    0.000000   0.000000   0.000002  -0.000004   0.000528   0.001813
    15  H    0.000002   0.000000   0.000000   0.000594  -0.000004  -0.002082
    16  H    0.000000   0.000000   0.000000  -0.000001   0.000000   0.000013
    17  H    0.000000   0.000000   0.000000   0.000002   0.000000   0.000611
    18  H    0.000000   0.000000   0.000000   0.000000   0.000000  -0.000004
    19  H    0.000000   0.000000   0.000000   0.000000   0.000000   0.000004
    20  H    0.000000   0.000000   0.000000   0.000000   0.000000   0.000042
              13         14         15         16         17         18
     1  C   -0.001933   0.000004   0.000007   0.000000   0.000000   0.000000
     2  C   -0.021381  -0.001814  -0.002232  -0.000012   0.000007   0.000000
     3  C    0.377855  -0.021438  -0.021762   0.001115  -0.002386   0.000015
     4  C   -0.020844   0.377244   0.377741  -0.020774  -0.021336   0.001124
     5  C   -0.001501  -0.021243  -0.020708   0.378312   0.377815  -0.018708
     6  C   -0.000371  -0.002375   0.001140  -0.021715  -0.021431   0.379642
     7  H   -0.000012   0.000000   0.000002   0.000000   0.000000   0.000000
     8  H    0.000006   0.000000   0.000000   0.000000   0.000000   0.000000
     9  H    0.000535   0.000002   0.000000   0.000000   0.000000   0.000000
    10  H    0.001822  -0.000004   0.000594  -0.000001   0.000002   0.000000
    11  H   -0.002218   0.000528  -0.000004   0.000000   0.000000   0.000000
    12  H   -0.023000   0.001813  -0.002082   0.000013   0.000611  -0.000004
    13  H    0.625679  -0.002299   0.001827  -0.000002   0.000018  -0.000006
    14  H   -0.002299   0.626273  -0.022657  -0.001538   0.001795   0.000011
    15  H    0.001827  -0.022657   0.626874  -0.002943  -0.001524  -0.000030
    16  H   -0.000002  -0.001538  -0.002943   0.625364  -0.022568  -0.002407
    17  H    0.000018   0.001795  -0.001524  -0.022568   0.624803  -0.001851
    18  H   -0.000006   0.000011  -0.000030  -0.002407  -0.001851   0.612857
    19  H    0.000041   0.000604   0.000016  -0.002014   0.001808  -0.020825
    20  H    0.000053   0.000008  -0.000001   0.001823  -0.002319  -0.021051
              19         20
     1  C    0.000000   0.000000
     2  C   -0.000002  -0.000004
     3  C    0.000010  -0.000354
     4  C   -0.002067  -0.001488
     5  C   -0.019660  -0.019233
     6  C    0.379379   0.379766
     7  H    0.000000   0.000000
     8  H    0.000000   0.000000
     9  H    0.000000   0.000000
    10  H    0.000000   0.000000
    11  H    0.000000   0.000000
    12  H    0.000004   0.000042
    13  H    0.000041   0.000053
    14  H    0.000604   0.000008
    15  H    0.000016  -0.000001
    16  H   -0.002014   0.001823
    17  H    0.001808  -0.002319
    18  H   -0.020825  -0.021051
    19  H    0.613843  -0.021181
    20  H   -0.021181   0.613001
 Mulliken charges:
               1
     1  C   -0.218054
     2  C   -0.127555
     3  C   -0.130119
     4  C   -0.129779
     5  C   -0.127868
     6  C   -0.218619
     7  H    0.070387
     8  H    0.071341
     9  H    0.070352
    10  H    0.066234
    11  H    0.066396
    12  H    0.064602
    13  H    0.065732
    14  H    0.065087
    15  H    0.065743
    16  H    0.067349
    17  H    0.066557
    18  H    0.071234
    19  H    0.070043
    20  H    0.070937
 Sum of Mulliken charges =   0.00000
 Mulliken charges with hydrogens summed into heavy atoms:
               1
     1  C   -0.005974
     2  C    0.005075
     3  C    0.000215
     4  C    0.001050
     5  C    0.006038
     6  C   -0.006404
 Electronic spatial extent (au):  <R**2>=           1046.7450
 Charge=              0.0000 electrons
 Dipole moment (field-independent basis, Debye):
    X=              0.0148    Y=             -0.0337    Z=              0.0025  Tot=              0.0369
 Quadrupole moment (field-independent basis, Debye-Ang):
   XX=            -39.0471   YY=            -38.7147   ZZ=            -38.3664
   XY=              0.0025   XZ=              0.0190   YZ=             -0.0712
 Traceless Quadrupole moment (field-independent basis, Debye-Ang):
   XX=             -0.3377   YY=             -0.0053   ZZ=              0.3430
   XY=              0.0025   XZ=              0.0190   YZ=             -0.0712
 Octapole moment (field-independent basis, Debye-Ang**2):
  XXX=              1.2115  YYY=             -0.2505  ZZZ=              0.0003  XYY=             -0.3048
  XXY=             -1.2658  XXZ=             -0.1085  XZZ=             -0.0903  YZZ=             -0.0248
  YYZ=              0.1430  XYZ=              0.4385
 Hexadecapole moment (field-independent basis, Debye-Ang**3):
 XXXX=          -1074.3043 YYYY=           -169.2214 ZZZZ=            -85.7337 XXXY=              4.1699
 XXXZ=              5.2119 YYYX=             -1.7964 YYYZ=             -1.7925 ZZZX=             -2.4482
 ZZZY=              0.9686 XXYY=           -210.8660 XXZZ=           -194.9448 YYZZ=            -45.6291
 XXYZ=              1.0867 YYXZ=              0.8022 ZZXY=             -0.1241
 N-N= 2.438463593128D+02 E-N=-1.027908070164D+03  KE= 2.300854771033D+02
 1\1\GINC-AVL06\FOpt\RB3LYP\STO-3G\C6H14\BING\18-Apr-2019\0\\# opt b3ly
 p/sto-3g\\c06h14_c01\\0,1\C,-0.0393722361,-1.5405915985,-2.2544777634\
 C,0.5378665267,-2.9823618117,-2.1596904572\C,1.4617557204,-3.172048257
 6,-0.9158029823\C,2.0340575079,-4.6212508702,-0.824988623\C,2.92065975
 18,-4.8668481077,0.4391023785\C,4.252648727,-4.0624802569,0.4341947006
 \H,-0.6388620528,-1.302306179,-1.362495331\H,-0.6839390634,-1.43865131
 69,-3.1411462686\H,0.7723645396,-0.8009559912,-2.3307908508\H,-0.29377
 05618,-3.7067804608,-2.108905279\H,1.1113127367,-3.2074948702,-3.07596
 1152\H,0.8883905179,-2.9485056847,0.0009261907\H,2.2909808524,-2.44633
 97571,-0.9690714719\H,2.62569807,-4.8376368539,-1.7318215866\H,1.19180
 2816,-5.3352229161,-0.8074377169\H,3.1557250094,-5.944284831,0.4971665
 505\H,2.341988039,-4.6110211094,1.344044553\H,4.8537674624,-4.31316044
 12,1.3217519838\H,4.8456839085,-4.2996741676,-0.462383396\H,4.06188172
 83,-2.9791645182,0.4449265215\\Version=ES64L-G09RevD.01\State=1-A\HF=-
 234.2774573\RMSD=4.857e-09\RMSF=7.305e-06\Dipole=-0.0028302,-0.0141518
 ,0.0015275\Quadrupole=-0.0329095,-0.0750751,0.1079846,0.0942354,-0.216
 1399,0.047488\PG=C01 [X(C6H14)]\\@


 The lyf so short, the craft so long to lerne.
                             -- Chaucer
 Job cpu time:       0 days  0 hours  4 minutes 21.6 seconds.
 File lengths (MBytes):  RWF=      5 Int=      0 D2E=      0 Chk=      2 Scr=      1
 Normal termination of Gaussian 09 at Thu Apr 18 22:27:34 2019.
