 Entering Gaussian System, Link 0=g09
 Input=c07h16_c01.com
 Output=c07h16_c01.out
 Initial command:
 /home/bing/src/g09_d.01/g09/l1.exe "/data/trash/Gau-1634.inp" -scrdir="/data/trash/"
 Entering Link 1 = /home/bing/src/g09_d.01/g09/l1.exe PID=      1638.
  
 Copyright (c) 1988,1990,1992,1993,1995,1998,2003,2009,2013,
            Gaussian, Inc.  All Rights Reserved.
  
 This is part of the Gaussian(R) 09 program.  It is based on
 the Gaussian(R) 03 system (copyright 2003, Gaussian, Inc.),
 the Gaussian(R) 98 system (copyright 1998, Gaussian, Inc.),
 the Gaussian(R) 94 system (copyright 1995, Gaussian, Inc.),
 the Gaussian 92(TM) system (copyright 1992, Gaussian, Inc.),
 the Gaussian 90(TM) system (copyright 1990, Gaussian, Inc.),
 the Gaussian 88(TM) system (copyright 1988, Gaussian, Inc.),
 the Gaussian 86(TM) system (copyright 1986, Carnegie Mellon
 University), and the Gaussian 82(TM) system (copyright 1983,
 Carnegie Mellon University). Gaussian is a federally registered
 trademark of Gaussian, Inc.
  
 This software contains proprietary and confidential information,
 including trade secrets, belonging to Gaussian, Inc.
  
 This software is provided under written license and may be
 used, copied, transmitted, or stored only in accord with that
 written license.
  
 The following legend is applicable only to US Government
 contracts under FAR:
  
                    RESTRICTED RIGHTS LEGEND
  
 Use, reproduction and disclosure by the US Government is
 subject to restrictions as set forth in subparagraphs (a)
 and (c) of the Commercial Computer Software - Restricted
 Rights clause in FAR 52.227-19.
  
 Gaussian, Inc.
 340 Quinnipiac St., Bldg. 40, Wallingford CT 06492
  
  
 ---------------------------------------------------------------
 Warning -- This program may not be used in any manner that
 competes with the business of Gaussian, Inc. or will provide
 assistance to any competitor of Gaussian, Inc.  The licensee
 of this program is prohibited from giving any competitor of
 Gaussian, Inc. access to this program.  By using this program,
 the user acknowledges that Gaussian, Inc. is engaged in the
 business of creating and licensing software in the field of
 computational chemistry and represents and warrants to the
 licensee that it is not a competitor of Gaussian, Inc. and that
 it will not use this program in any manner prohibited above.
 ---------------------------------------------------------------
  

 Cite this work as:
 Gaussian 09, Revision D.01,
 M. J. Frisch, G. W. Trucks, H. B. Schlegel, G. E. Scuseria, 
 M. A. Robb, J. R. Cheeseman, G. Scalmani, V. Barone, B. Mennucci, 
 G. A. Petersson, H. Nakatsuji, M. Caricato, X. Li, H. P. Hratchian, 
 A. F. Izmaylov, J. Bloino, G. Zheng, J. L. Sonnenberg, M. Hada, 
 M. Ehara, K. Toyota, R. Fukuda, J. Hasegawa, M. Ishida, T. Nakajima, 
 Y. Honda, O. Kitao, H. Nakai, T. Vreven, J. A. Montgomery, Jr., 
 J. E. Peralta, F. Ogliaro, M. Bearpark, J. J. Heyd, E. Brothers, 
 K. N. Kudin, V. N. Staroverov, T. Keith, R. Kobayashi, J. Normand, 
 K. Raghavachari, A. Rendell, J. C. Burant, S. S. Iyengar, J. Tomasi, 
 M. Cossi, N. Rega, J. M. Millam, M. Klene, J. E. Knox, J. B. Cross, 
 V. Bakken, C. Adamo, J. Jaramillo, R. Gomperts, R. E. Stratmann, 
 O. Yazyev, A. J. Austin, R. Cammi, C. Pomelli, J. W. Ochterski, 
 R. L. Martin, K. Morokuma, V. G. Zakrzewski, G. A. Voth, 
 P. Salvador, J. J. Dannenberg, S. Dapprich, A. D. Daniels, 
 O. Farkas, J. B. Foresman, J. V. Ortiz, J. Cioslowski, 
 and D. J. Fox, Gaussian, Inc., Wallingford CT, 2013.
 
 ******************************************
 Gaussian 09:  ES64L-G09RevD.01 24-Apr-2013
                17-Apr-2019 
 ******************************************
 %nproc=6
 Will use up to    6 processors via shared memory.
 -------------------------
 # opt(GDIIS) b3lyp/sto-3g
 -------------------------

 Warning!  Use of Opt=GDIIS is deprecated since it is seldom a good choice.

 1/14=-1,18=20,19=11,26=3,38=1/1,3;
 2/9=110,12=2,17=6,18=5,40=1/2;
 3/6=3,11=2,16=1,25=1,30=1,71=1,74=-5/1,2,3;
 4//1;
 5/5=2,38=5/2;
 6/7=2,8=2,9=2,10=2,28=1/1;
 7//1,2,3,16;
 1/14=-1,18=20,19=11,26=3/3(2);
 2/9=110/2;
 99//99;
 2/9=110/2;
 3/6=3,11=2,16=1,25=1,30=1,71=1,74=-5/1,2,3;
 4/5=5,16=3,69=1/1;
 5/5=2,38=5/2;
 7//1,2,3,16;
 1/14=-1,18=20,19=11,26=3/3(-5);
 2/9=110/2;
 6/7=2,8=2,9=2,10=2,19=2,28=1/1;
 99/9=1/99;
 ----------
 c07h16_c01
 ----------
 Symbolic Z-matrix:
 Charge =  0 Multiplicity = 1
 C                     3.0351    3.1161    0.5871 
 C                     3.5607    4.5488    0.6807 
 C                     4.5252    4.9235   -0.4565 
 C                     5.8282    4.1088   -0.4428 
 C                     6.7756    4.5777   -1.5583 
 C                     8.1284    3.847    -1.5555 
 C                     8.0139    2.3511   -1.8502 
 H                     3.8553    2.3776    0.6922 
 H                     2.5175    2.9587   -0.3829 
 H                     2.3103    2.9365    1.4089 
 H                     4.0605    4.6973    1.6625 
 H                     2.6878    5.2355    0.6304 
 H                     4.7817    5.999    -0.3365 
 H                     4.0104    4.7973   -1.4344 
 H                     6.3301    4.241     0.5408 
 H                     5.5916    3.0369   -0.5897 
 H                     6.9807    5.6612   -1.4131 
 H                     6.2873    4.4474   -2.549 
 H                     8.634     3.9947   -0.5765 
 H                     8.7655    4.3016   -2.345 
 H                     9.0298    1.9041   -1.8807 
 H                     7.5256    2.1891   -2.8346 
 H                     7.4374    1.8272   -1.0613 
 

 GradGradGradGradGradGradGradGradGradGradGradGradGradGradGradGradGradGrad
 Berny optimization.
 Initialization pass.
                           ----------------------------
                           !    Initial Parameters    !
                           ! (Angstroms and Degrees)  !
 --------------------------                            --------------------------
 ! Name  Definition              Value          Derivative Info.                !
 --------------------------------------------------------------------------------
 ! R1    R(1,2)                  1.5289         estimate D2E/DX2                !
 ! R2    R(1,8)                  1.1087         estimate D2E/DX2                !
 ! R3    R(1,9)                  1.1107         estimate D2E/DX2                !
 ! R4    R(1,10)                 1.1104         estimate D2E/DX2                !
 ! R5    R(2,3)                  1.5375         estimate D2E/DX2                !
 ! R6    R(2,11)                 1.1117         estimate D2E/DX2                !
 ! R7    R(2,12)                 1.1118         estimate D2E/DX2                !
 ! R8    R(3,4)                  1.5368         estimate D2E/DX2                !
 ! R9    R(3,13)                 1.1122         estimate D2E/DX2                !
 ! R10   R(3,14)                 1.1123         estimate D2E/DX2                !
 ! R11   R(4,5)                  1.5368         estimate D2E/DX2                !
 ! R12   R(4,15)                 1.1121         estimate D2E/DX2                !
 ! R13   R(4,16)                 1.1075         estimate D2E/DX2                !
 ! R14   R(5,6)                  1.5375         estimate D2E/DX2                !
 ! R15   R(5,17)                 1.1123         estimate D2E/DX2                !
 ! R16   R(5,18)                 1.1122         estimate D2E/DX2                !
 ! R17   R(6,7)                  1.5289         estimate D2E/DX2                !
 ! R18   R(6,19)                 1.1117         estimate D2E/DX2                !
 ! R19   R(6,20)                 1.1117         estimate D2E/DX2                !
 ! R20   R(7,21)                 1.1103         estimate D2E/DX2                !
 ! R21   R(7,22)                 1.1107         estimate D2E/DX2                !
 ! R22   R(7,23)                 1.1087         estimate D2E/DX2                !
 ! A1    A(2,1,8)              111.3497         estimate D2E/DX2                !
 ! A2    A(2,1,9)              110.2714         estimate D2E/DX2                !
 ! A3    A(2,1,10)             109.3083         estimate D2E/DX2                !
 ! A4    A(8,1,9)              109.4607         estimate D2E/DX2                !
 ! A5    A(8,1,10)             107.7584         estimate D2E/DX2                !
 ! A6    A(9,1,10)             108.6176         estimate D2E/DX2                !
 ! A7    A(1,2,3)              113.4995         estimate D2E/DX2                !
 ! A8    A(1,2,11)             109.4997         estimate D2E/DX2                !
 ! A9    A(1,2,12)             107.8248         estimate D2E/DX2                !
 ! A10   A(3,2,11)             109.7944         estimate D2E/DX2                !
 ! A11   A(3,2,12)             107.9714         estimate D2E/DX2                !
 ! A12   A(11,2,12)            108.0862         estimate D2E/DX2                !
 ! A13   A(2,3,4)              113.3343         estimate D2E/DX2                !
 ! A14   A(2,3,13)             107.4906         estimate D2E/DX2                !
 ! A15   A(2,3,14)             109.4073         estimate D2E/DX2                !
 ! A16   A(4,3,13)             108.4302         estimate D2E/DX2                !
 ! A17   A(4,3,14)             109.8831         estimate D2E/DX2                !
 ! A18   A(13,3,14)            108.1388         estimate D2E/DX2                !
 ! A19   A(3,4,5)              110.7609         estimate D2E/DX2                !
 ! A20   A(3,4,15)             109.1174         estimate D2E/DX2                !
 ! A21   A(3,4,16)             109.3159         estimate D2E/DX2                !
 ! A22   A(5,4,15)             109.1162         estimate D2E/DX2                !
 ! A23   A(5,4,16)             109.3131         estimate D2E/DX2                !
 ! A24   A(15,4,16)            109.1945         estimate D2E/DX2                !
 ! A25   A(4,5,6)              113.3334         estimate D2E/DX2                !
 ! A26   A(4,5,17)             108.4299         estimate D2E/DX2                !
 ! A27   A(4,5,18)             109.8873         estimate D2E/DX2                !
 ! A28   A(6,5,17)             107.486          estimate D2E/DX2                !
 ! A29   A(6,5,18)             109.4052         estimate D2E/DX2                !
 ! A30   A(17,5,18)            108.1424         estimate D2E/DX2                !
 ! A31   A(5,6,7)              113.4988         estimate D2E/DX2                !
 ! A32   A(5,6,19)             109.7927         estimate D2E/DX2                !
 ! A33   A(5,6,20)             107.975          estimate D2E/DX2                !
 ! A34   A(7,6,19)             109.4987         estimate D2E/DX2                !
 ! A35   A(7,6,20)             107.8255         estimate D2E/DX2                !
 ! A36   A(19,6,20)            108.0854         estimate D2E/DX2                !
 ! A37   A(6,7,21)             109.309          estimate D2E/DX2                !
 ! A38   A(6,7,22)             110.27           estimate D2E/DX2                !
 ! A39   A(6,7,23)             111.3532         estimate D2E/DX2                !
 ! A40   A(21,7,22)            108.6131         estimate D2E/DX2                !
 ! A41   A(21,7,23)            107.7627         estimate D2E/DX2                !
 ! A42   A(22,7,23)            109.458          estimate D2E/DX2                !
 ! D1    D(8,1,2,3)             63.8223         estimate D2E/DX2                !
 ! D2    D(8,1,2,11)           -59.2509         estimate D2E/DX2                !
 ! D3    D(8,1,2,12)          -176.6254         estimate D2E/DX2                !
 ! D4    D(9,1,2,3)            -57.8928         estimate D2E/DX2                !
 ! D5    D(9,1,2,11)           179.034          estimate D2E/DX2                !
 ! D6    D(9,1,2,12)            61.6595         estimate D2E/DX2                !
 ! D7    D(10,1,2,3)          -177.2344         estimate D2E/DX2                !
 ! D8    D(10,1,2,11)           59.6924         estimate D2E/DX2                !
 ! D9    D(10,1,2,12)          -57.6821         estimate D2E/DX2                !
 ! D10   D(1,2,3,4)            -64.4872         estimate D2E/DX2                !
 ! D11   D(1,2,3,13)           175.7154         estimate D2E/DX2                !
 ! D12   D(1,2,3,14)            58.5158         estimate D2E/DX2                !
 ! D13   D(11,2,3,4)            58.4239         estimate D2E/DX2                !
 ! D14   D(11,2,3,13)          -61.3735         estimate D2E/DX2                !
 ! D15   D(11,2,3,14)         -178.573          estimate D2E/DX2                !
 ! D16   D(12,2,3,4)           176.0442         estimate D2E/DX2                !
 ! D17   D(12,2,3,13)           56.2467         estimate D2E/DX2                !
 ! D18   D(12,2,3,14)          -60.9528         estimate D2E/DX2                !
 ! D19   D(2,3,4,5)           -177.1923         estimate D2E/DX2                !
 ! D20   D(2,3,4,15)           -57.0554         estimate D2E/DX2                !
 ! D21   D(2,3,4,16)            62.2993         estimate D2E/DX2                !
 ! D22   D(13,3,4,5)           -57.9325         estimate D2E/DX2                !
 ! D23   D(13,3,4,15)           62.2043         estimate D2E/DX2                !
 ! D24   D(13,3,4,16)         -178.441          estimate D2E/DX2                !
 ! D25   D(14,3,4,5)            60.0675         estimate D2E/DX2                !
 ! D26   D(14,3,4,15)         -179.7956         estimate D2E/DX2                !
 ! D27   D(14,3,4,16)          -60.4409         estimate D2E/DX2                !
 ! D28   D(3,4,5,6)            177.1863         estimate D2E/DX2                !
 ! D29   D(3,4,5,17)            57.933          estimate D2E/DX2                !
 ! D30   D(3,4,5,18)           -60.0736         estimate D2E/DX2                !
 ! D31   D(15,4,5,6)            57.0487         estimate D2E/DX2                !
 ! D32   D(15,4,5,17)          -62.2045         estimate D2E/DX2                !
 ! D33   D(15,4,5,18)          179.7888         estimate D2E/DX2                !
 ! D34   D(16,4,5,6)           -62.3036         estimate D2E/DX2                !
 ! D35   D(16,4,5,17)          178.4432         estimate D2E/DX2                !
 ! D36   D(16,4,5,18)           60.4365         estimate D2E/DX2                !
 ! D37   D(4,5,6,7)             64.4858         estimate D2E/DX2                !
 ! D38   D(4,5,6,19)           -58.4222         estimate D2E/DX2                !
 ! D39   D(4,5,6,20)          -176.0427         estimate D2E/DX2                !
 ! D40   D(17,5,6,7)          -175.7208         estimate D2E/DX2                !
 ! D41   D(17,5,6,19)           61.3712         estimate D2E/DX2                !
 ! D42   D(17,5,6,20)          -56.2492         estimate D2E/DX2                !
 ! D43   D(18,5,6,7)           -58.5206         estimate D2E/DX2                !
 ! D44   D(18,5,6,19)          178.5713         estimate D2E/DX2                !
 ! D45   D(18,5,6,20)           60.9509         estimate D2E/DX2                !
 ! D46   D(5,6,7,21)           177.2286         estimate D2E/DX2                !
 ! D47   D(5,6,7,22)            57.8929         estimate D2E/DX2                !
 ! D48   D(5,6,7,23)           -63.8202         estimate D2E/DX2                !
 ! D49   D(19,6,7,21)          -59.7017         estimate D2E/DX2                !
 ! D50   D(19,6,7,22)         -179.0374         estimate D2E/DX2                !
 ! D51   D(19,6,7,23)           59.2495         estimate D2E/DX2                !
 ! D52   D(20,6,7,21)           57.6717         estimate D2E/DX2                !
 ! D53   D(20,6,7,22)          -61.6639         estimate D2E/DX2                !
 ! D54   D(20,6,7,23)          176.623          estimate D2E/DX2                !
 --------------------------------------------------------------------------------
 Trust Radius=3.00D-01 FncErr=1.00D-07 GrdErr=1.00D-06
 Number of steps in this run=    128 maximum allowed number of steps=    138.
 GradGradGradGradGradGradGradGradGradGradGradGradGradGradGradGradGradGrad

                          Input orientation:                          
 ---------------------------------------------------------------------
 Center     Atomic      Atomic             Coordinates (Angstroms)
 Number     Number       Type             X           Y           Z
 ---------------------------------------------------------------------
      1          6           0        3.035100    3.116100    0.587100
      2          6           0        3.560700    4.548800    0.680700
      3          6           0        4.525200    4.923500   -0.456500
      4          6           0        5.828200    4.108800   -0.442800
      5          6           0        6.775600    4.577700   -1.558300
      6          6           0        8.128400    3.847000   -1.555500
      7          6           0        8.013900    2.351100   -1.850200
      8          1           0        3.855300    2.377600    0.692200
      9          1           0        2.517500    2.958700   -0.382900
     10          1           0        2.310300    2.936500    1.408900
     11          1           0        4.060500    4.697300    1.662500
     12          1           0        2.687800    5.235500    0.630400
     13          1           0        4.781700    5.999000   -0.336500
     14          1           0        4.010400    4.797300   -1.434400
     15          1           0        6.330100    4.241000    0.540800
     16          1           0        5.591600    3.036900   -0.589700
     17          1           0        6.980700    5.661200   -1.413100
     18          1           0        6.287300    4.447400   -2.549000
     19          1           0        8.634000    3.994700   -0.576500
     20          1           0        8.765500    4.301600   -2.345000
     21          1           0        9.029800    1.904100   -1.880700
     22          1           0        7.525600    2.189100   -2.834600
     23          1           0        7.437400    1.827200   -1.061300
 ---------------------------------------------------------------------
                    Distance matrix (angstroms):
                    1          2          3          4          5
     1  C    0.000000
     2  C    1.528936   0.000000
     3  C    2.564409   1.537493   0.000000
     4  C    3.138081   2.568542   1.536793   0.000000
     5  C    4.553060   3.917849   2.529395   1.536807   0.000000
     6  C    5.573747   5.133907   3.917870   2.568572   1.537530
     7  C    5.595901   5.573718   4.553094   3.138084   2.564438
     8  H    1.108673   2.191125   2.872261   2.859653   4.293407
     9  H    1.110669   2.178974   2.810109   3.505289   4.704694
    10  H    1.110381   2.166399   3.511932   4.144720   5.606846
    11  H    2.169821   1.111658   2.181117   2.811296   4.214217
    12  H    2.148103   1.111774   2.157483   3.504757   4.683291
    13  H    3.494962   2.151422   1.112157   2.163173   2.736517
    14  H    2.804301   2.176610   1.112310   2.182132   2.776672
    15  H    3.482035   2.789962   2.172114   1.112137   2.172109
    16  H    2.815461   2.832722   2.171223   1.107488   2.171199
    17  H    5.103537   4.161470   2.736561   2.163258   1.112260
    18  H    4.710020   4.227954   2.776729   2.182086   1.112161
    19  H    5.785636   5.256040   4.214179   2.811300   2.181163
    20  H    6.545235   6.025439   4.683304   3.504749   2.157506
    21  H    6.595105   6.592895   5.606830   4.144696   3.511908
    22  H    5.721184   5.800513   4.704753   3.505299   2.810134
    23  H    4.874293   5.046828   4.293456   2.859679   2.872323
                    6          7          8          9         10
     6  C    0.000000
     7  C    1.528946   0.000000
     8  H    5.046848   4.874264   0.000000
     9  H    5.800540   5.721238   1.811967   0.000000
    10  H    6.592948   6.595110   1.792499   1.803877   0.000000
    11  H    5.256077   5.785593   2.522815   3.096327   2.495582
    12  H    6.025464   6.545264   3.087793   2.497919   2.456414
    13  H    4.161426   5.103487   3.876981   3.791066   4.305014
    14  H    4.227962   4.710074   3.225125   2.591303   3.799641
    15  H    2.789909   3.481923   3.101583   4.127158   4.314407
    16  H    2.832735   2.815443   2.256697   3.082040   3.843359
    17  H    2.151468   3.495042   4.998244   5.318362   6.099206
    18  H    2.176504   2.804272   4.550173   4.595608   5.810707
    19  H    1.111705   2.169852   5.201979   6.206638   6.711988
    20  H    1.111696   2.148064   6.085756   6.685112   7.591105
    21  H    2.166365   1.110312   5.798230   6.765030   7.552417
    22  H    2.179013   1.110731   5.093619   5.628870   6.765002
    23  H    2.191188   1.108687   4.026058   5.093715   5.798240
                   11         12         13         14         15
    11  H    0.000000
    12  H    1.799776   0.000000
    13  H    2.492098   2.429454   0.000000
    14  H    3.098919   2.490921   1.801214   0.000000
    15  H    2.572451   3.776693   2.501552   3.097078   0.000000
    16  H    3.189608   3.841164   3.081247   2.512513   1.809218
    17  H    4.349251   4.773479   2.471594   3.093454   2.501594
    18  H    4.770516   4.866835   3.093453   2.559109   3.096982
    19  H    5.140396   6.193019   4.349142   4.770517   2.572349
    20  H    6.193033   6.831077   4.773458   4.866815   3.776597
    21  H    6.711943   7.591101   6.099108   5.810694   4.314295
    22  H    6.206601   6.685139   5.318348   4.595639   4.127086
    23  H    5.201924   6.085808   4.998199   4.550278   3.101495
                   16         17         18         19         20
    16  H    0.000000
    17  H    3.081321   0.000000
    18  H    2.512442   1.801217   0.000000
    19  H    3.189632   2.492092   3.098821   0.000000
    20  H    3.841118   2.429498   2.490853   1.799742   0.000000
    21  H    3.843324   4.305027   3.799514   2.495637   2.456305
    22  H    3.081996   3.791181   2.591307   3.096410   2.497942
    23  H    2.256714   3.877099   3.225125   2.522883   3.087781
                   21         22         23
    21  H    0.000000
    22  H    1.803820   0.000000
    23  H    1.792503   1.812000   0.000000
 Stoichiometry    C7H16
 Framework group  C1[X(C7H16)]
 Deg. of freedom    63
 Full point group                 C1      NOp   1
 Largest Abelian subgroup         C1      NOp   1
 Largest concise Abelian subgroup C1      NOp   1
                         Standard orientation:                         
 ---------------------------------------------------------------------
 Center     Atomic      Atomic             Coordinates (Angstroms)
 Number     Number       Type             X           Y           Z
 ---------------------------------------------------------------------
      1          6           0       -2.797952    1.159685    0.115104
      2          6           0       -2.566942   -0.298802   -0.281252
      3          6           0       -1.264710   -0.888909    0.284299
      4          6           0       -0.000003   -0.209673   -0.264235
      5          6           0        1.264686   -0.888894    0.284397
      6          6           0        2.566965   -0.298833   -0.281197
      7          6           0        2.797949    1.159705    0.115021
      8          1           0       -2.013028    1.821031   -0.304028
      9          1           0       -2.814454    1.259899    1.221119
     10          1           0       -3.776213    1.498676   -0.286189
     11          1           0       -2.570200   -0.387170   -1.389387
     12          1           0       -3.415542   -0.897724    0.115248
     13          1           0       -1.235791   -1.964742    0.003872
     14          1           0       -1.279545   -0.820695    1.394417
     15          1           0        0.000052   -0.281928   -1.374022
     16          1           0        0.000008    0.857694    0.031158
     17          1           0        1.235803   -1.964824    0.003931
     18          1           0        1.279564   -0.820633    1.394361
     19          1           0        2.570196   -0.387287   -1.389373
     20          1           0        3.415535   -0.897664    0.115283
     21          1           0        3.776204    1.498625   -0.286156
     22          1           0        2.814417    1.260010    1.221092
     23          1           0        2.013030    1.821058   -0.304146
 ---------------------------------------------------------------------
 Rotational constants (GHZ):      5.1424566      1.0136171      0.9013633
 Standard basis: STO-3G (5D, 7F)
 There are    51 symmetry adapted cartesian basis functions of A   symmetry.
 There are    51 symmetry adapted basis functions of A   symmetry.
    51 basis functions,   153 primitive gaussians,    51 cartesian basis functions
    29 alpha electrons       29 beta electrons
       nuclear repulsion energy       315.2430951937 Hartrees.
 NAtoms=   23 NActive=   23 NUniq=   23 SFac= 1.00D+00 NAtFMM=   60 NAOKFM=F Big=F
 Integral buffers will be    131072 words long.
 Raffenetti 2 integral format.
 Two-electron integral symmetry is turned on.
 One-electron integrals computed using PRISM.
 NBasis=    51 RedAO= T EigKep=  2.02D-01  NBF=    51
 NBsUse=    51 1.00D-06 EigRej= -1.00D+00 NBFU=    51
 ExpMin= 1.69D-01 ExpMax= 7.16D+01 ExpMxC= 7.16D+01 IAcc=1 IRadAn=         1 AccDes= 0.00D+00
 Harris functional with IExCor=  402 and IRadAn=       1 diagonalized for initial guess.
 HarFok:  IExCor=  402 AccDes= 0.00D+00 IRadAn=         1 IDoV= 1 UseB2=F ITyADJ=14
 ICtDFT=  3500011 ScaDFX=  1.000000  1.000000  1.000000  1.000000
 FoFCou: FMM=F IPFlag=           0 FMFlag=      100000 FMFlg1=           0
         NFxFlg=           0 DoJE=T BraDBF=F KetDBF=T FulRan=T
         wScrn=  0.000000 ICntrl=     500 IOpCl=  0 I1Cent=   200000004 NGrid=           0
         NMat0=    1 NMatS0=      1 NMatT0=    0 NMatD0=    1 NMtDS0=    0 NMtDT0=    0
 Petite list used in FoFCou.
 Keep R1 ints in memory in canonical form, NReq=1777275.
 Requested convergence on RMS density matrix=1.00D-08 within 128 cycles.
 Requested convergence on MAX density matrix=1.00D-06.
 Requested convergence on             energy=1.00D-06.
 No special actions if energy rises.
 Integral accuracy reduced to 1.0D-05 until final iterations.
 Initial convergence to 1.0D-05 achieved.  Increase integral accuracy.
 SCF Done:  E(RB3LYP) =  -273.120040383     A.U. after   10 cycles
            NFock= 10  Conv=0.51D-08     -V/T= 2.0179

 **********************************************************************

            Population analysis using the SCF density.

 **********************************************************************

 Orbital symmetries:
       Occupied  (A) (A) (A) (A) (A) (A) (A) (A) (A) (A) (A) (A)
                 (A) (A) (A) (A) (A) (A) (A) (A) (A) (A) (A) (A)
                 (A) (A) (A) (A) (A)
       Virtual   (A) (A) (A) (A) (A) (A) (A) (A) (A) (A) (A) (A)
                 (A) (A) (A) (A) (A) (A) (A) (A) (A) (A)
 The electronic state is 1-A.
 Alpha  occ. eigenvalues --  -10.00642 -10.00642 -10.00376 -10.00342 -10.00216
 Alpha  occ. eigenvalues --   -9.99872  -9.99872  -0.76792  -0.73733  -0.68635
 Alpha  occ. eigenvalues --   -0.63148  -0.58665  -0.52993  -0.52314  -0.43655
 Alpha  occ. eigenvalues --   -0.42087  -0.39630  -0.39180  -0.38620  -0.34983
 Alpha  occ. eigenvalues --   -0.33814  -0.33514  -0.31512  -0.30328  -0.28988
 Alpha  occ. eigenvalues --   -0.28688  -0.28050  -0.26852  -0.25531
 Alpha virt. eigenvalues --    0.34456   0.35672   0.37873   0.38744   0.38957
 Alpha virt. eigenvalues --    0.41196   0.41765   0.42302   0.44795   0.45504
 Alpha virt. eigenvalues --    0.47052   0.47100   0.47695   0.49032   0.50027
 Alpha virt. eigenvalues --    0.50732   0.50772   0.52034   0.52168   0.53505
 Alpha virt. eigenvalues --    0.54710   0.55959
          Condensed to atoms (all electrons):
               1          2          3          4          5          6
     1  C    4.784693   0.364261  -0.021837  -0.002393   0.000010   0.000000
     2  C    0.364261   4.774100   0.361826  -0.020862   0.000741  -0.000005
     3  C   -0.021837   0.361826   4.785543   0.363324  -0.022332   0.000741
     4  C   -0.002393  -0.020862   0.363324   4.785606   0.363323  -0.020860
     5  C    0.000010   0.000741  -0.022332   0.363323   4.785549   0.361816
     6  C    0.000000  -0.000005   0.000741  -0.020860   0.361816   4.774108
     7  C    0.000000   0.000000   0.000010  -0.002393  -0.021835   0.364259
     8  H    0.378420  -0.020044  -0.001761  -0.000546  -0.000004   0.000001
     9  H    0.378143  -0.020818  -0.002336  -0.000002  -0.000002   0.000000
    10  H    0.377589  -0.020225   0.001314   0.000025   0.000000   0.000000
    11  H   -0.022268   0.377604  -0.021747  -0.002351   0.000007   0.000000
    12  H   -0.023170   0.377410  -0.021968   0.001285  -0.000016   0.000000
    13  H    0.001332  -0.022318   0.376778  -0.022680  -0.002835   0.000013
    14  H   -0.002370  -0.021872   0.377009  -0.021812  -0.002192   0.000006
    15  H    0.000013  -0.002294  -0.021902   0.377052  -0.021903  -0.002295
    16  H   -0.000561  -0.001828  -0.021906   0.378234  -0.021906  -0.001828
    17  H   -0.000001   0.000013  -0.002835  -0.022676   0.376756  -0.022316
    18  H    0.000001   0.000006  -0.002192  -0.021813   0.377041  -0.021876
    19  H    0.000000   0.000000   0.000007  -0.002351  -0.021745   0.377593
    20  H    0.000000   0.000000  -0.000016   0.001285  -0.021967   0.377428
    21  H    0.000000   0.000000   0.000000   0.000025   0.001314  -0.020227
    22  H    0.000000   0.000000  -0.000002  -0.000002  -0.002337  -0.020816
    23  H    0.000000   0.000001  -0.000004  -0.000546  -0.001760  -0.020042
               7          8          9         10         11         12
     1  C    0.000000   0.378420   0.378143   0.377589  -0.022268  -0.023170
     2  C    0.000000  -0.020044  -0.020818  -0.020225   0.377604   0.377410
     3  C    0.000010  -0.001761  -0.002336   0.001314  -0.021747  -0.021968
     4  C   -0.002393  -0.000546  -0.000002   0.000025  -0.002351   0.001285
     5  C   -0.021835  -0.000004  -0.000002   0.000000   0.000007  -0.000016
     6  C    0.364259   0.000001   0.000000   0.000000   0.000000   0.000000
     7  C    4.784697   0.000000   0.000000   0.000000   0.000000   0.000000
     8  H    0.000000   0.616701  -0.020151  -0.020856  -0.002440   0.001984
     9  H    0.000000  -0.020151   0.617124  -0.020017   0.001931  -0.002414
    10  H    0.000000  -0.020856  -0.020017   0.618687  -0.002198  -0.002858
    11  H    0.000000  -0.002440   0.001931  -0.002198   0.627412  -0.021271
    12  H    0.000000   0.001984  -0.002414  -0.002858  -0.021271   0.630572
    13  H   -0.000001  -0.000001   0.000018  -0.000036  -0.002155  -0.002979
    14  H    0.000001   0.000005   0.000663   0.000009   0.001878  -0.002160
    15  H    0.000013   0.000059   0.000006  -0.000006   0.000630   0.000016
    16  H   -0.000561  -0.000037   0.000056  -0.000005   0.000016  -0.000001
    17  H    0.001332   0.000000   0.000000   0.000000   0.000003  -0.000001
    18  H   -0.002369   0.000000   0.000000   0.000000   0.000000   0.000000
    19  H   -0.022267   0.000000   0.000000   0.000000   0.000000   0.000000
    20  H   -0.023171   0.000000   0.000000   0.000000   0.000000   0.000000
    21  H    0.377603   0.000000   0.000000   0.000000   0.000000   0.000000
    22  H    0.378126   0.000000   0.000000   0.000000   0.000000   0.000000
    23  H    0.378419  -0.000002   0.000000   0.000000   0.000000   0.000000
              13         14         15         16         17         18
     1  C    0.001332  -0.002370   0.000013  -0.000561  -0.000001   0.000001
     2  C   -0.022318  -0.021872  -0.002294  -0.001828   0.000013   0.000006
     3  C    0.376778   0.377009  -0.021902  -0.021906  -0.002835  -0.002192
     4  C   -0.022680  -0.021812   0.377052   0.378234  -0.022676  -0.021813
     5  C   -0.002835  -0.002192  -0.021903  -0.021906   0.376756   0.377041
     6  C    0.000013   0.000006  -0.002295  -0.001828  -0.022316  -0.021876
     7  C   -0.000001   0.000001   0.000013  -0.000561   0.001332  -0.002369
     8  H   -0.000001   0.000005   0.000059  -0.000037   0.000000   0.000000
     9  H    0.000018   0.000663   0.000006   0.000056   0.000000   0.000000
    10  H   -0.000036   0.000009  -0.000006  -0.000005   0.000000   0.000000
    11  H   -0.002155   0.001878   0.000630   0.000016   0.000003   0.000000
    12  H   -0.002979  -0.002160   0.000016  -0.000001  -0.000001   0.000000
    13  H    0.632184  -0.021356  -0.002370   0.001961   0.000699  -0.000011
    14  H   -0.021356   0.628665   0.001887  -0.002434  -0.000011   0.000552
    15  H   -0.002370   0.001887   0.628930  -0.021387  -0.002370   0.001887
    16  H    0.001961  -0.002434  -0.021387   0.626240   0.001961  -0.002434
    17  H    0.000699  -0.000011  -0.002370   0.001961   0.632220  -0.021356
    18  H   -0.000011   0.000552   0.001887  -0.002434  -0.021356   0.628608
    19  H    0.000003   0.000000   0.000630   0.000016  -0.002155   0.001878
    20  H   -0.000001   0.000000   0.000016  -0.000001  -0.002978  -0.002160
    21  H    0.000000   0.000000  -0.000006  -0.000005  -0.000036   0.000009
    22  H    0.000000   0.000000   0.000006   0.000056   0.000018   0.000663
    23  H    0.000000   0.000000   0.000059  -0.000037  -0.000001   0.000005
              19         20         21         22         23
     1  C    0.000000   0.000000   0.000000   0.000000   0.000000
     2  C    0.000000   0.000000   0.000000   0.000000   0.000001
     3  C    0.000007  -0.000016   0.000000  -0.000002  -0.000004
     4  C   -0.002351   0.001285   0.000025  -0.000002  -0.000546
     5  C   -0.021745  -0.021967   0.001314  -0.002337  -0.001760
     6  C    0.377593   0.377428  -0.020227  -0.020816  -0.020042
     7  C   -0.022267  -0.023171   0.377603   0.378126   0.378419
     8  H    0.000000   0.000000   0.000000   0.000000  -0.000002
     9  H    0.000000   0.000000   0.000000   0.000000   0.000000
    10  H    0.000000   0.000000   0.000000   0.000000   0.000000
    11  H    0.000000   0.000000   0.000000   0.000000   0.000000
    12  H    0.000000   0.000000   0.000000   0.000000   0.000000
    13  H    0.000003  -0.000001   0.000000   0.000000   0.000000
    14  H    0.000000   0.000000   0.000000   0.000000   0.000000
    15  H    0.000630   0.000016  -0.000006   0.000006   0.000059
    16  H    0.000016  -0.000001  -0.000005   0.000056  -0.000037
    17  H   -0.002155  -0.002978  -0.000036   0.000018  -0.000001
    18  H    0.001878  -0.002160   0.000009   0.000663   0.000005
    19  H    0.627433  -0.021272  -0.002197   0.001931  -0.002440
    20  H   -0.021272   0.630541  -0.002859  -0.002413   0.001983
    21  H   -0.002197  -0.002859   0.618665  -0.020020  -0.020856
    22  H    0.001931  -0.002413  -0.020020   0.617157  -0.020150
    23  H   -0.002440   0.001983  -0.020856  -0.020150   0.616699
 Mulliken charges:
               1
     1  C   -0.211863
     2  C   -0.125696
     3  C   -0.125715
     4  C   -0.128872
     5  C   -0.125723
     6  C   -0.125701
     7  C   -0.211863
     8  H    0.068673
     9  H    0.067799
    10  H    0.068577
    11  H    0.064948
    12  H    0.065570
    13  H    0.063755
    14  H    0.063532
    15  H    0.063328
    16  H    0.066390
    17  H    0.063734
    18  H    0.063561
    19  H    0.064937
    20  H    0.065585
    21  H    0.068588
    22  H    0.067783
    23  H    0.068672
 Sum of Mulliken charges =   0.00000
 Mulliken charges with hydrogens summed into heavy atoms:
               1
     1  C   -0.006813
     2  C    0.004823
     3  C    0.001572
     4  C    0.000846
     5  C    0.001571
     6  C    0.004820
     7  C   -0.006820
 Electronic spatial extent (au):  <R**2>=           1372.0358
 Charge=              0.0000 electrons
 Dipole moment (field-independent basis, Debye):
    X=              0.0000    Y=             -0.0677    Z=             -0.0132  Tot=              0.0689
 Quadrupole moment (field-independent basis, Debye-Ang):
   XX=            -45.3176   YY=            -45.4018   ZZ=            -44.3526
   XY=             -0.0001   XZ=              0.0002   YZ=              0.0314
 Traceless Quadrupole moment (field-independent basis, Debye-Ang):
   XX=             -0.2936   YY=             -0.3778   ZZ=              0.6714
   XY=             -0.0001   XZ=              0.0002   YZ=              0.0314
 Octapole moment (field-independent basis, Debye-Ang**2):
  XXX=              0.0013  YYY=             -1.7252  ZZZ=              0.6697  XYY=             -0.0001
  XXY=             -0.9086  XXZ=              0.0894  XZZ=             -0.0003  YZZ=              0.0871
  YYZ=             -0.9538  XYZ=              0.0004
 Hexadecapole moment (field-independent basis, Debye-Ang**3):
 XXXX=          -1365.6920 YYYY=           -283.9639 ZZZZ=            -99.1963 XXXY=             -0.0008
 XXXZ=              0.0025 YYYX=             -0.0002 YYYZ=             -0.5372 ZZZX=             -0.0001
 ZZZY=              1.9178 XXYY=           -280.4891 XXZZ=           -245.5306 YYZZ=            -66.3409
 XXYZ=             -3.7416 YYXZ=              0.0005 ZZXY=             -0.0003
 N-N= 3.152430951937D+02 E-N=-1.260421031926D+03  KE= 2.683112602858D+02
 Calling FoFJK, ICntrl=      2127 FMM=F ISym2X=0 I1Cent= 0 IOpClX= 0 NMat=1 NMatS=1 NMatT=0.
 ***** Axes restored to original set *****
 -------------------------------------------------------------------
 Center     Atomic                   Forces (Hartrees/Bohr)
 Number     Number              X              Y              Z
 -------------------------------------------------------------------
      1        6          -0.009581485   -0.019284936    0.003253961
      2        6          -0.008874940    0.013673661    0.011807012
      3        6          -0.003313564    0.016650617   -0.007632960
      4        6           0.002204407   -0.009839460    0.007561672
      5        6           0.000160498    0.016206322   -0.009177086
      6        6           0.017616596    0.009574433   -0.001095041
      7        6           0.003346512   -0.021269616   -0.003161102
      8        1          -0.005871853    0.003353505   -0.002479260
      9        1           0.004014447   -0.001540795    0.006938530
     10        1           0.003439970   -0.001164661   -0.006510436
     11        1          -0.003178940    0.000717926   -0.005299238
     12        1           0.005437262   -0.001676949    0.003473531
     13        1          -0.001824936   -0.005058857   -0.004503737
     14        1           0.003591666    0.001846989    0.005326479
     15        1          -0.003182770   -0.004199441   -0.005180586
     16        1           0.002501133    0.003738841    0.003942754
     17        1          -0.003678108   -0.004849321   -0.003620908
     18        1           0.002427752    0.002009513    0.005775303
     19        1          -0.002093620    0.000543269   -0.005868266
     20        1          -0.000860289   -0.000679884    0.006525955
     21        1          -0.007288194    0.000468494   -0.001225643
     22        1           0.002678697   -0.001322965    0.007641000
     23        1           0.002329761    0.002103316   -0.006491934
 -------------------------------------------------------------------
 Cartesian Forces:  Max     0.021269616 RMS     0.007020117

 GradGradGradGradGradGradGradGradGradGradGradGradGradGradGradGradGradGrad
 Berny optimization.
 FormGI is forming the generalized inverse of G from B-inverse, IUseBI=4.
 Internal  Forces:  Max     0.020143791 RMS     0.005074486
 Search for a local minimum.
 Step number   1 out of a maximum of  128
 All quantities printed in internal units (Hartrees-Bohrs-Radians)
 Swapping is turned off.
 Second derivative matrix not updated -- first step.
 ITU=  0
     Eigenvalues ---    0.00269   0.00270   0.00279   0.00279   0.00383
     Eigenvalues ---    0.00383   0.03447   0.03447   0.03471   0.03471
     Eigenvalues ---    0.03740   0.04813   0.04813   0.04847   0.04847
     Eigenvalues ---    0.04889   0.05536   0.05536   0.05780   0.05780
     Eigenvalues ---    0.07891   0.08341   0.08342   0.08395   0.08396
     Eigenvalues ---    0.11880   0.12226   0.12226   0.12260   0.12261
     Eigenvalues ---    0.16000   0.16000   0.16000   0.16000   0.16000
     Eigenvalues ---    0.16000   0.21969   0.21988   0.21989   0.21991
     Eigenvalues ---    0.21991   0.28739   0.28742   0.28804   0.28805
     Eigenvalues ---    0.29521   0.29522   0.32357   0.32362   0.32372
     Eigenvalues ---    0.32373   0.32375   0.32413   0.32420   0.32421
     Eigenvalues ---    0.32425   0.32523   0.32529   0.32560   0.32567
     Eigenvalues ---    0.32739   0.32741   0.32867
 Quadratic step=4.642D-01 exceeds max=3.000D-01 adjusted using Lamda=-4.373D-03.
 Angle between NR and scaled steps=  24.75 degrees.
 Angle between quadratic step and forces=  43.65 degrees.
 Linear search not attempted -- option 19 set.
 Iteration  1 RMS(Cart)=  0.07124638 RMS(Int)=  0.00042709
 Iteration  2 RMS(Cart)=  0.00066407 RMS(Int)=  0.00016320
 Iteration  3 RMS(Cart)=  0.00000013 RMS(Int)=  0.00016320
 Variable       Old X    -DE/DX   Delta X   Delta X   Delta X     New X
                                 (Linear)    (Quad)   (Total)
    R1        2.88927   0.02014   0.00000   0.06724   0.06724   2.95651
    R2        2.09509  -0.00682   0.00000  -0.02054  -0.02054   2.07455
    R3        2.09886  -0.00771   0.00000  -0.02338  -0.02338   2.07548
    R4        2.09832  -0.00688   0.00000  -0.02084  -0.02084   2.07747
    R5        2.90544   0.01888   0.00000   0.06470   0.06470   2.97014
    R6        2.10073  -0.00601   0.00000  -0.01829  -0.01829   2.08244
    R7        2.10095  -0.00546   0.00000  -0.01663  -0.01663   2.08432
    R8        2.90412   0.01765   0.00000   0.06036   0.06036   2.96448
    R9        2.10167  -0.00580   0.00000  -0.01767  -0.01767   2.08401
   R10        2.10196  -0.00656   0.00000  -0.02000  -0.02000   2.08196
   R11        2.90414   0.01764   0.00000   0.06033   0.06033   2.96447
   R12        2.10163  -0.00652   0.00000  -0.01986  -0.01986   2.08178
   R13        2.09285  -0.00468   0.00000  -0.01404  -0.01404   2.07881
   R14        2.90551   0.01886   0.00000   0.06463   0.06463   2.97014
   R15        2.10187  -0.00587   0.00000  -0.01790  -0.01790   2.08396
   R16        2.10168  -0.00645   0.00000  -0.01966  -0.01966   2.08202
   R17        2.88929   0.02014   0.00000   0.06721   0.06721   2.95650
   R18        2.10082  -0.00605   0.00000  -0.01840  -0.01840   2.08242
   R19        2.10080  -0.00541   0.00000  -0.01646  -0.01646   2.08435
   R20        2.09819  -0.00683   0.00000  -0.02068  -0.02068   2.07750
   R21        2.09898  -0.00775   0.00000  -0.02352  -0.02352   2.07546
   R22        2.09511  -0.00683   0.00000  -0.02058  -0.02058   2.07454
    A1        1.94342   0.00108   0.00000   0.00530   0.00520   1.94861
    A2        1.92460   0.00226   0.00000   0.01006   0.00997   1.93457
    A3        1.90779   0.00360   0.00000   0.02680   0.02657   1.93436
    A4        1.91045  -0.00290   0.00000  -0.02672  -0.02669   1.88376
    A5        1.88074  -0.00155   0.00000  -0.00235  -0.00258   1.87816
    A6        1.89573  -0.00266   0.00000  -0.01375  -0.01395   1.88178
    A7        1.98094   0.00299   0.00000   0.01993   0.01971   2.00065
    A8        1.91113  -0.00034   0.00000  -0.00176  -0.00162   1.90951
    A9        1.88190   0.00009   0.00000   0.01422   0.01389   1.89579
   A10        1.91627  -0.00158   0.00000  -0.01445  -0.01443   1.90185
   A11        1.88446  -0.00031   0.00000   0.00783   0.00738   1.89183
   A12        1.88646  -0.00098   0.00000  -0.02754  -0.02751   1.85895
   A13        1.97806   0.00357   0.00000   0.02268   0.02244   2.00050
   A14        1.87607   0.00063   0.00000   0.02028   0.01998   1.89605
   A15        1.90952  -0.00108   0.00000  -0.00695  -0.00678   1.90274
   A16        1.89246  -0.00115   0.00000   0.00200   0.00139   1.89385
   A17        1.91782  -0.00127   0.00000  -0.01240  -0.01238   1.90544
   A18        1.88738  -0.00084   0.00000  -0.02721  -0.02720   1.86018
   A19        1.93314   0.00433   0.00000   0.02925   0.02894   1.96208
   A20        1.90446  -0.00089   0.00000  -0.00105  -0.00117   1.90329
   A21        1.90792  -0.00065   0.00000   0.00519   0.00484   1.91277
   A22        1.90444  -0.00089   0.00000  -0.00104  -0.00116   1.90328
   A23        1.90787  -0.00064   0.00000   0.00523   0.00489   1.91277
   A24        1.90580  -0.00133   0.00000  -0.03863  -0.03862   1.86718
   A25        1.97804   0.00357   0.00000   0.02268   0.02244   2.00048
   A26        1.89246  -0.00114   0.00000   0.00200   0.00139   1.89385
   A27        1.91790  -0.00128   0.00000  -0.01247  -0.01245   1.90545
   A28        1.87598   0.00064   0.00000   0.02035   0.02006   1.89604
   A29        1.90948  -0.00108   0.00000  -0.00691  -0.00673   1.90275
   A30        1.88744  -0.00084   0.00000  -0.02726  -0.02725   1.86019
   A31        1.98093   0.00299   0.00000   0.01994   0.01973   2.00065
   A32        1.91624  -0.00158   0.00000  -0.01442  -0.01440   1.90185
   A33        1.88452  -0.00031   0.00000   0.00776   0.00731   1.89183
   A34        1.91111  -0.00034   0.00000  -0.00174  -0.00159   1.90952
   A35        1.88191   0.00009   0.00000   0.01420   0.01387   1.89578
   A36        1.88645  -0.00098   0.00000  -0.02751  -0.02749   1.85896
   A37        1.90780   0.00360   0.00000   0.02679   0.02657   1.93437
   A38        1.92457   0.00226   0.00000   0.01008   0.00999   1.93457
   A39        1.94348   0.00108   0.00000   0.00523   0.00513   1.94861
   A40        1.89566  -0.00266   0.00000  -0.01367  -0.01388   1.88178
   A41        1.88081  -0.00155   0.00000  -0.00241  -0.00264   1.87817
   A42        1.91040  -0.00290   0.00000  -0.02669  -0.02666   1.88375
    D1        1.11391  -0.00133   0.00000  -0.01865  -0.01880   1.09511
    D2       -1.03412  -0.00112   0.00000  -0.01263  -0.01273  -1.04686
    D3       -3.08269   0.00019   0.00000   0.01314   0.01318  -3.06952
    D4       -1.01042   0.00007   0.00000   0.00475   0.00474  -1.00568
    D5        3.12473   0.00027   0.00000   0.01077   0.01080   3.13553
    D6        1.07616   0.00158   0.00000   0.03654   0.03671   1.11287
    D7       -3.09332  -0.00027   0.00000  -0.00113  -0.00120  -3.09452
    D8        1.04183  -0.00007   0.00000   0.00489   0.00487   1.04670
    D9       -1.00674   0.00124   0.00000   0.03066   0.03078  -0.97597
   D10       -1.12551   0.00057   0.00000  -0.00833  -0.00811  -1.13363
   D11        3.06681  -0.00060   0.00000  -0.03840  -0.03850   3.02831
   D12        1.02129   0.00062   0.00000  -0.01368  -0.01357   1.00772
   D13        1.01969   0.00106   0.00000  -0.00731  -0.00722   1.01247
   D14       -1.07117  -0.00012   0.00000  -0.03738  -0.03760  -1.10877
   D15       -3.11669   0.00111   0.00000  -0.01266  -0.01267  -3.12936
   D16        3.07255  -0.00117   0.00000  -0.04382  -0.04371   3.02884
   D17        0.98169  -0.00235   0.00000  -0.07389  -0.07409   0.90760
   D18       -1.06383  -0.00113   0.00000  -0.04917  -0.04917  -1.11299
   D19       -3.09259  -0.00046   0.00000  -0.00148  -0.00148  -3.09407
   D20       -0.99581   0.00056   0.00000   0.01472   0.01470  -0.98110
   D21        1.08733  -0.00197   0.00000  -0.02977  -0.02986   1.05746
   D22       -1.01111   0.00178   0.00000   0.03947   0.03949  -0.97162
   D23        1.08567   0.00279   0.00000   0.05568   0.05568   1.14135
   D24       -3.11438   0.00027   0.00000   0.01119   0.01111  -3.10327
   D25        1.04838  -0.00063   0.00000   0.00075   0.00085   1.04923
   D26       -3.13803   0.00039   0.00000   0.01696   0.01704  -3.12099
   D27       -1.05489  -0.00214   0.00000  -0.02753  -0.02753  -1.08242
   D28        3.09248   0.00046   0.00000   0.00153   0.00153   3.09401
   D29        1.01112  -0.00178   0.00000  -0.03952  -0.03953   0.97159
   D30       -1.04848   0.00064   0.00000  -0.00069  -0.00079  -1.04927
   D31        0.99569  -0.00055   0.00000  -0.01467  -0.01465   0.98104
   D32       -1.08567  -0.00280   0.00000  -0.05571  -0.05571  -1.14139
   D33        3.13791  -0.00038   0.00000  -0.01689  -0.01697   3.12094
   D34       -1.08740   0.00197   0.00000   0.02978   0.02988  -1.05752
   D35        3.11442  -0.00027   0.00000  -0.01126  -0.01118   3.10324
   D36        1.05482   0.00214   0.00000   0.02756   0.02756   1.08238
   D37        1.12549  -0.00057   0.00000   0.00837   0.00815   1.13364
   D38       -1.01966  -0.00106   0.00000   0.00729   0.00720  -1.01246
   D39       -3.07252   0.00117   0.00000   0.04380   0.04369  -3.02884
   D40       -3.06691   0.00061   0.00000   0.03849   0.03858  -3.02832
   D41        1.07113   0.00012   0.00000   0.03741   0.03763   1.10876
   D42       -0.98173   0.00235   0.00000   0.07391   0.07412  -0.90762
   D43       -1.02138  -0.00062   0.00000   0.01377   0.01366  -1.00772
   D44        3.11666  -0.00111   0.00000   0.01269   0.01270   3.12936
   D45        1.06379   0.00113   0.00000   0.04919   0.04919   1.11299
   D46        3.09322   0.00028   0.00000   0.00116   0.00123   3.09445
   D47        1.01042  -0.00007   0.00000  -0.00482  -0.00480   1.00562
   D48       -1.11387   0.00132   0.00000   0.01857   0.01872  -1.09516
   D49       -1.04199   0.00007   0.00000  -0.00479  -0.00477  -1.04676
   D50       -3.12479  -0.00028   0.00000  -0.01077  -0.01081  -3.13560
   D51        1.03410   0.00112   0.00000   0.01262   0.01271   1.04681
   D52        1.00656  -0.00123   0.00000  -0.03054  -0.03065   0.97591
   D53       -1.07624  -0.00158   0.00000  -0.03651  -0.03668  -1.11292
   D54        3.08265  -0.00019   0.00000  -0.01313  -0.01316   3.06949
         Item               Value     Threshold  Converged?
 Maximum Force            0.020144     0.000450     NO 
 RMS     Force            0.005074     0.000300     NO 
 Maximum Displacement     0.249528     0.001800     NO 
 RMS     Displacement     0.071627     0.001200     NO 
 Predicted change in Energy=-6.195358D-03
 GradGradGradGradGradGradGradGradGradGradGradGradGradGradGradGradGradGrad

                          Input orientation:                          
 ---------------------------------------------------------------------
 Center     Atomic      Atomic             Coordinates (Angstroms)
 Number     Number       Type             X           Y           Z
 ---------------------------------------------------------------------
      1          6           0        2.928024    3.112561    0.638627
      2          6           0        3.497056    4.567856    0.716286
      3          6           0        4.492530    4.944495   -0.440222
      4          6           0        5.829906    4.124532   -0.444277
      5          6           0        6.812422    4.588022   -1.575982
      6          6           0        8.197728    3.845602   -1.584961
      7          6           0        8.115407    2.315518   -1.900827
      8          1           0        3.723255    2.361346    0.730573
      9          1           0        2.413183    2.944751   -0.316902
     10          1           0        2.204825    2.931941    1.446671
     11          1           0        4.002232    4.712282    1.684941
     12          1           0        2.653106    5.277645    0.694008
     13          1           0        4.739191    6.016200   -0.357809
     14          1           0        3.984196    4.812454   -1.408705
     15          1           0        6.325965    4.240855    0.532443
     16          1           0        5.606097    3.054327   -0.565530
     17          1           0        6.993134    5.669840   -1.461317
     18          1           0        6.326105    4.452554   -2.555273
     19          1           0        8.689002    3.992207   -0.609518
     20          1           0        8.845299    4.326210   -2.337457
     21          1           0        9.119536    1.869513   -1.938447
     22          1           0        7.634195    2.142497   -2.872801
     23          1           0        7.540206    1.774894   -1.137919
 ---------------------------------------------------------------------
                    Distance matrix (angstroms):
                    1          2          3          4          5
     1  C    0.000000
     2  C    1.564517   0.000000
     3  C    2.639617   1.571730   0.000000
     4  C    3.258479   2.643034   1.568735   0.000000
     5  C    4.708506   4.030701   2.607475   1.568731   0.000000
     6  C    5.766409   5.283342   4.030693   2.643018   1.571731
     7  C    5.830357   5.766409   4.708516   3.258464   2.639615
     8  H    1.097803   2.218120   2.938572   2.987821   4.452105
     9  H    1.098298   2.208331   2.887537   3.616919   4.861988
    10  H    1.099351   2.208968   3.583899   4.259010   5.754041
    11  H    2.192671   1.101977   2.193315   2.866951   4.306533
    12  H    2.183172   1.102973   2.186538   3.566149   4.788356
    13  H    3.564314   2.189585   1.102808   2.185301   2.796770
    14  H    2.862989   2.193791   1.101725   2.193173   2.842045
    15  H    3.581944   2.853673   2.191499   1.101628   2.191488
    16  H    2.936914   2.895146   2.197377   1.100059   2.197374
    17  H    5.241619   4.263670   2.796745   2.185280   1.102785
    18  H    4.852169   4.326651   2.842084   2.193198   1.101756
    19  H    5.959909   5.389381   4.306494   2.866922   2.193308
    20  H    6.733808   6.163395   4.788358   3.566147   2.186545
    21  H    6.820653   6.777974   5.754074   4.259028   3.583914
    22  H    5.951403   5.989977   4.861964   3.616857   2.887497
    23  H    5.120322   5.252216   4.452132   2.987819   2.938580
                    6          7          8          9         10
     6  C    0.000000
     7  C    1.564514   0.000000
     8  H    5.252201   5.120290   0.000000
     9  H    5.990030   5.951480   1.775910   0.000000
    10  H    6.777939   6.820609   1.773134   1.775885   0.000000
    11  H    5.389395   5.959901   2.552557   3.107510   2.541074
    12  H    6.163382   6.733803   3.106664   2.553801   2.503953
    13  H    4.263669   5.241640   3.946475   3.853023   4.380846
    14  H    4.326629   4.852194   3.263822   2.673655   3.854304
    15  H    2.853615   3.581875   3.216505   4.208460   4.419599
    16  H    2.895152   2.936920   2.388556   3.204454   3.953806
    17  H    2.189561   3.564287   5.142239   5.450848   6.235414
    18  H    2.193825   2.863010   4.684524   4.753392   5.942454
    19  H    1.101968   2.192664   5.395757   6.369355   6.884521
    20  H    1.102988   2.183178   6.285605   6.882092   7.769138
    21  H    2.208983   1.099368   6.040316   6.982887   7.771808
    22  H    2.208317   1.098287   5.322373   5.868151   6.982773
    23  H    2.218109   1.097797   4.290024   5.322499   6.040295
                   11         12         13         14         15
    11  H    0.000000
    12  H    1.766840   0.000000
    13  H    2.533009   2.450211   0.000000
    14  H    3.095319   2.531720   1.767316   0.000000
    15  H    2.636329   3.819808   2.542095   3.094941   0.000000
    16  H    3.222703   3.905091   3.093115   2.536241   1.769633
    17  H    4.445374   4.861593   2.533368   3.129151   2.542084
    18  H    4.842237   4.972879   3.129238   2.632240   3.094964
    19  H    5.267719   6.307422   4.445324   4.842180   2.636256
    20  H    6.307459   6.959761   4.861604   4.972861   3.819771
    21  H    6.884553   7.769163   6.235451   5.942495   4.419570
    22  H    6.369298   6.882044   5.450854   4.753393   4.208355
    23  H    5.395744   6.285616   5.142269   4.684582   3.216434
                   16         17         18         19         20
    16  H    0.000000
    17  H    3.093091   0.000000
    18  H    2.536243   1.767329   0.000000
    19  H    3.222709   2.532979   3.095345   0.000000
    20  H    3.905104   2.450200   2.531748   1.766850   0.000000
    21  H    3.953851   4.380836   3.854326   2.541110   2.503951
    22  H    3.204390   3.852972   2.673628   3.107490   2.553815
    23  H    2.388589   3.946451   3.263862   2.552530   3.106665
                   21         22         23
    21  H    0.000000
    22  H    1.775887   0.000000
    23  H    1.773155   1.775888   0.000000
 Stoichiometry    C7H16
 Framework group  C1[X(C7H16)]
 Deg. of freedom    63
 Full point group                 C1      NOp   1
 Largest Abelian subgroup         C1      NOp   1
 Largest concise Abelian subgroup C1      NOp   1
                         Standard orientation:                         
 ---------------------------------------------------------------------
 Center     Atomic      Atomic             Coordinates (Angstroms)
 Number     Number       Type             X           Y           Z
 ---------------------------------------------------------------------
      1          6           0       -2.915179    1.181973    0.113407
      2          6           0       -2.641673   -0.306319   -0.283950
      3          6           0       -1.303739   -0.901456    0.287085
      4          6           0        0.000006   -0.224319   -0.263062
      5          6           0        1.303735   -0.901442    0.287132
      6          6           0        2.641669   -0.306329   -0.283931
      7          6           0        2.915178    1.181975    0.113370
      8          1           0       -2.145000    1.855479   -0.284571
      9          1           0       -2.934107    1.297731    1.205423
     10          1           0       -3.885883    1.518903   -0.277470
     11          1           0       -2.633864   -0.396582   -1.382197
     12          1           0       -3.479879   -0.926562    0.075576
     13          1           0       -1.266685   -1.977555    0.048706
     14          1           0       -1.316127   -0.823113    1.385951
     15          1           0        0.000033   -0.285009   -1.363017
     16          1           0       -0.000004    0.843879   -0.000222
     17          1           0        1.266683   -1.977524    0.048784
     18          1           0        1.316113   -0.823059    1.386027
     19          1           0        2.633855   -0.396635   -1.382164
     20          1           0        3.479882   -0.926568    0.075632
     21          1           0        3.885925    1.518881   -0.277467
     22          1           0        2.934044    1.297778    1.205372
     23          1           0        2.145024    1.855464   -0.284666
 ---------------------------------------------------------------------
 Rotational constants (GHZ):      5.0111422      0.9493806      0.8460275
 Standard basis: STO-3G (5D, 7F)
 There are    51 symmetry adapted cartesian basis functions of A   symmetry.
 There are    51 symmetry adapted basis functions of A   symmetry.
    51 basis functions,   153 primitive gaussians,    51 cartesian basis functions
    29 alpha electrons       29 beta electrons
       nuclear repulsion energy       309.2802981127 Hartrees.
 NAtoms=   23 NActive=   23 NUniq=   23 SFac= 1.00D+00 NAtFMM=   60 NAOKFM=F Big=F
 Integral buffers will be    131072 words long.
 Raffenetti 2 integral format.
 Two-electron integral symmetry is turned on.
 One-electron integrals computed using PRISM.
 NBasis=    51 RedAO= T EigKep=  2.09D-01  NBF=    51
 NBsUse=    51 1.00D-06 EigRej= -1.00D+00 NBFU=    51
 Initial guess from the checkpoint file:  "/data/trash/Gau-1638.chk"
 B after Tr=     0.000000    0.000000    0.000000
         Rot=    0.999999    0.001634    0.000000    0.000000 Ang=   0.19 deg.
 ExpMin= 1.69D-01 ExpMax= 7.16D+01 ExpMxC= 7.16D+01 IAcc=1 IRadAn=         1 AccDes= 0.00D+00
 Harris functional with IExCor=  402 and IRadAn=       1 diagonalized for initial guess.
 HarFok:  IExCor=  402 AccDes= 0.00D+00 IRadAn=         1 IDoV= 1 UseB2=F ITyADJ=14
 ICtDFT=  3500011 ScaDFX=  1.000000  1.000000  1.000000  1.000000
 FoFCou: FMM=F IPFlag=           0 FMFlag=      100000 FMFlg1=           0
         NFxFlg=           0 DoJE=T BraDBF=F KetDBF=T FulRan=T
         wScrn=  0.000000 ICntrl=     500 IOpCl=  0 I1Cent=   200000004 NGrid=           0
         NMat0=    1 NMatS0=      1 NMatT0=    0 NMatD0=    1 NMtDS0=    0 NMtDT0=    0
 Petite list used in FoFCou.
 Keep R1 ints in memory in canonical form, NReq=1777275.
 Requested convergence on RMS density matrix=1.00D-08 within 128 cycles.
 Requested convergence on MAX density matrix=1.00D-06.
 Requested convergence on             energy=1.00D-06.
 No special actions if energy rises.
 Integral accuracy reduced to 1.0D-05 until final iterations.
 Initial convergence to 1.0D-05 achieved.  Increase integral accuracy.
 SCF Done:  E(RB3LYP) =  -273.123771743     A.U. after    9 cycles
            NFock=  9  Conv=0.63D-08     -V/T= 2.0184
 Calling FoFJK, ICntrl=      2127 FMM=F ISym2X=0 I1Cent= 0 IOpClX= 0 NMat=1 NMatS=1 NMatT=0.
 ***** Axes restored to original set *****
 -------------------------------------------------------------------
 Center     Atomic                   Forces (Hartrees/Bohr)
 Number     Number              X              Y              Z
 -------------------------------------------------------------------
      1        6           0.002146728    0.003594999   -0.000880149
      2        6           0.002214439   -0.003226381   -0.001785342
      3        6           0.000772496   -0.003400168    0.000191707
      4        6           0.000003083    0.001694894   -0.000521582
      5        6          -0.001139202   -0.003127399    0.001102754
      6        6          -0.003457388   -0.002349572    0.000974950
      7        6          -0.001045188    0.004085247    0.000691326
      8        1           0.002565079   -0.000206950    0.000064197
      9        1          -0.000685192    0.000591537   -0.002245580
     10        1          -0.000643947    0.001674131    0.001557917
     11        1           0.001343836   -0.000961966    0.001694035
     12        1          -0.000873572    0.000720019   -0.001320688
     13        1          -0.000065933    0.001256569    0.001498933
     14        1          -0.000976272   -0.001199079   -0.001877710
     15        1           0.001035505    0.000669904    0.001906566
     16        1          -0.000771512   -0.001874178   -0.000987252
     17        1           0.001507748    0.001032731    0.000729759
     18        1          -0.001166209   -0.001165215   -0.001757444
     19        1           0.000299110   -0.000799245    0.002213566
     20        1          -0.000344881    0.000632904   -0.001573722
     21        1           0.001977894    0.001274354    0.000270422
     22        1          -0.001200009    0.000668997   -0.002003437
     23        1          -0.001496616    0.000413864    0.002056774
 -------------------------------------------------------------------
 Cartesian Forces:  Max     0.004085247 RMS     0.001634439

 GradGradGradGradGradGradGradGradGradGradGradGradGradGradGradGradGradGrad
 Berny optimization.
 Using GDIIS optimizer.
 FormGI is forming the generalized inverse of G from B-inverse, IUseBI=4.
 Internal  Forces:  Max     0.006516331 RMS     0.001871579
 Search for a local minimum.
 Step number   2 out of a maximum of  128
 All quantities printed in internal units (Hartrees-Bohrs-Radians)
 Swapping is turned off.
 Update second derivatives using D2CorX and points    1    2
 DE= -3.73D-03 DEPred=-6.20D-03 R= 6.02D-01
 TightC=F SS=  1.41D+00  RLast= 3.00D-01 DXNew= 5.0454D-01 9.0016D-01
 Trust test= 6.02D-01 RLast= 3.00D-01 DXMaxT set to 5.05D-01
 ITU=  1  0
     Eigenvalues ---    0.00270   0.00271   0.00279   0.00279   0.00383
     Eigenvalues ---    0.00383   0.03287   0.03295   0.03325   0.03328
     Eigenvalues ---    0.03501   0.04734   0.04749   0.04771   0.04777
     Eigenvalues ---    0.05050   0.05468   0.05469   0.05560   0.05561
     Eigenvalues ---    0.08241   0.08611   0.08623   0.08634   0.08639
     Eigenvalues ---    0.12146   0.12414   0.12420   0.12429   0.12445
     Eigenvalues ---    0.15970   0.16000   0.16000   0.16000   0.16000
     Eigenvalues ---    0.16326   0.21915   0.21952   0.21952   0.21954
     Eigenvalues ---    0.22198   0.28740   0.28770   0.28804   0.29221
     Eigenvalues ---    0.29521   0.31577   0.32347   0.32363   0.32368
     Eigenvalues ---    0.32374   0.32396   0.32410   0.32418   0.32423
     Eigenvalues ---    0.32484   0.32526   0.32540   0.32564   0.32695
     Eigenvalues ---    0.32740   0.32837   0.38070
 DIIS coeff's:      0.74184      0.25816
 Cosine:  1.000 >  0.970
 Length:  1.000
 GDIIS step was calculated using  2 of the last  2 vectors.
 Iteration  1 RMS(Cart)=  0.02755760 RMS(Int)=  0.00016529
 Iteration  2 RMS(Cart)=  0.00039728 RMS(Int)=  0.00003041
 Iteration  3 RMS(Cart)=  0.00000009 RMS(Int)=  0.00003041
 Variable       Old X    -DE/DX   Delta X   Delta X   Delta X     New X
                                 (Linear)    (Quad)   (Total)
    R1        2.95651  -0.00641  -0.01736   0.00245  -0.01491   2.94159
    R2        2.07455   0.00200   0.00530  -0.00112   0.00418   2.07873
    R3        2.07548   0.00219   0.00604  -0.00145   0.00458   2.08007
    R4        2.07747   0.00129   0.00538  -0.00280   0.00258   2.08005
    R5        2.97014  -0.00652  -0.01670   0.00104  -0.01566   2.95448
    R6        2.08244   0.00198   0.00472  -0.00051   0.00421   2.08665
    R7        2.08432   0.00116   0.00429  -0.00194   0.00236   2.08667
    R8        2.96448  -0.00555  -0.01558   0.00236  -0.01322   2.95126
    R9        2.08401   0.00132   0.00456  -0.00184   0.00272   2.08672
   R10        2.08196   0.00224   0.00516  -0.00038   0.00479   2.08675
   R11        2.96447  -0.00555  -0.01557   0.00236  -0.01322   2.95126
   R12        2.08178   0.00223   0.00513  -0.00037   0.00476   2.08654
   R13        2.07881   0.00209   0.00362   0.00085   0.00447   2.08328
   R14        2.97014  -0.00652  -0.01669   0.00102  -0.01566   2.95448
   R15        2.08396   0.00134   0.00462  -0.00187   0.00275   2.08672
   R16        2.08202   0.00222   0.00508  -0.00034   0.00473   2.08675
   R17        2.95650  -0.00641  -0.01735   0.00244  -0.01491   2.94159
   R18        2.08242   0.00199   0.00475  -0.00052   0.00423   2.08664
   R19        2.08435   0.00115   0.00425  -0.00191   0.00233   2.08668
   R20        2.07750   0.00128   0.00534  -0.00279   0.00255   2.08006
   R21        2.07546   0.00220   0.00607  -0.00147   0.00460   2.08006
   R22        2.07454   0.00201   0.00531  -0.00112   0.00419   2.07873
    A1        1.94861  -0.00160  -0.00134  -0.00612  -0.00746   1.94116
    A2        1.93457  -0.00068  -0.00257  -0.00025  -0.00282   1.93175
    A3        1.93436  -0.00225  -0.00686  -0.00301  -0.00984   1.92452
    A4        1.88376   0.00124   0.00689  -0.00182   0.00505   1.88881
    A5        1.87816   0.00198   0.00067   0.00818   0.00887   1.88702
    A6        1.88178   0.00156   0.00360   0.00359   0.00723   1.88902
    A7        2.00065  -0.00331  -0.00509  -0.00866  -0.01372   1.98693
    A8        1.90951   0.00042   0.00042  -0.00168  -0.00131   1.90821
    A9        1.89579   0.00122  -0.00359   0.00714   0.00360   1.89939
   A10        1.90185   0.00139   0.00372   0.00056   0.00425   1.90610
   A11        1.89183   0.00036  -0.00190   0.00029  -0.00152   1.89032
   A12        1.85895   0.00015   0.00710   0.00322   0.01030   1.86925
   A13        2.00050  -0.00376  -0.00579  -0.00931  -0.01507   1.98543
   A14        1.89605   0.00022  -0.00516   0.00123  -0.00386   1.89219
   A15        1.90274   0.00131   0.00175   0.00182   0.00353   1.90626
   A16        1.89385   0.00160  -0.00036   0.00571   0.00543   1.89928
   A17        1.90544   0.00087   0.00320  -0.00102   0.00215   1.90759
   A18        1.86018  -0.00001   0.00702   0.00239   0.00939   1.86957
   A19        1.96208  -0.00311  -0.00747  -0.00450  -0.01191   1.95017
   A20        1.90329   0.00093   0.00030   0.00333   0.00367   1.90696
   A21        1.91277   0.00076  -0.00125   0.00115  -0.00004   1.91272
   A22        1.90328   0.00093   0.00030   0.00335   0.00368   1.90696
   A23        1.91277   0.00076  -0.00126   0.00117  -0.00004   1.91272
   A24        1.86718  -0.00013   0.00997  -0.00450   0.00546   1.87265
   A25        2.00048  -0.00375  -0.00579  -0.00930  -0.01506   1.98542
   A26        1.89385   0.00160  -0.00036   0.00572   0.00544   1.89929
   A27        1.90545   0.00087   0.00321  -0.00105   0.00214   1.90759
   A28        1.89604   0.00022  -0.00518   0.00126  -0.00385   1.89219
   A29        1.90275   0.00131   0.00174   0.00182   0.00351   1.90626
   A30        1.86019  -0.00001   0.00704   0.00237   0.00938   1.86957
   A31        2.00065  -0.00331  -0.00509  -0.00865  -0.01372   1.98693
   A32        1.90185   0.00139   0.00372   0.00057   0.00425   1.90609
   A33        1.89183   0.00036  -0.00189   0.00027  -0.00151   1.89031
   A34        1.90952   0.00042   0.00041  -0.00167  -0.00131   1.90821
   A35        1.89578   0.00122  -0.00358   0.00714   0.00360   1.89939
   A36        1.85896   0.00015   0.00710   0.00322   0.01030   1.86926
   A37        1.93437  -0.00225  -0.00686  -0.00302  -0.00984   1.92452
   A38        1.93457  -0.00068  -0.00258  -0.00024  -0.00281   1.93175
   A39        1.94861  -0.00160  -0.00132  -0.00613  -0.00746   1.94115
   A40        1.88178   0.00156   0.00358   0.00362   0.00724   1.88902
   A41        1.87817   0.00198   0.00068   0.00814   0.00885   1.88702
   A42        1.88375   0.00124   0.00688  -0.00180   0.00507   1.88881
    D1        1.09511   0.00025   0.00485  -0.00191   0.00299   1.09810
    D2       -1.04686   0.00047   0.00329   0.00482   0.00811  -1.03874
    D3       -3.06952  -0.00061  -0.00340  -0.00207  -0.00549  -3.07501
    D4       -1.00568   0.00022  -0.00122   0.00469   0.00349  -1.00219
    D5        3.13553   0.00043  -0.00279   0.01142   0.00862  -3.13904
    D6        1.11287  -0.00065  -0.00948   0.00453  -0.00499   1.10788
    D7       -3.09452   0.00017   0.00031   0.00232   0.00267  -3.09185
    D8        1.04670   0.00039  -0.00126   0.00905   0.00779   1.05449
    D9       -0.97597  -0.00069  -0.00795   0.00216  -0.00581  -0.98178
   D10       -1.13363   0.00011   0.00209  -0.03175  -0.02967  -1.16330
   D11        3.02831   0.00043   0.00994  -0.03374  -0.02378   3.00453
   D12        1.00772  -0.00039   0.00350  -0.03824  -0.03474   0.97298
   D13        1.01247  -0.00061   0.00186  -0.03962  -0.03777   0.97470
   D14       -1.10877  -0.00029   0.00971  -0.04161  -0.03188  -1.14065
   D15       -3.12936  -0.00111   0.00327  -0.04611  -0.04284   3.11098
   D16        3.02884   0.00049   0.01128  -0.03536  -0.02409   3.00475
   D17        0.90760   0.00082   0.01913  -0.03735  -0.01820   0.88940
   D18       -1.11299   0.00000   0.01269  -0.04185  -0.02916  -1.14215
   D19       -3.09407   0.00013   0.00038   0.00170   0.00210  -3.09197
   D20       -0.98110  -0.00008  -0.00380   0.00529   0.00150  -0.97960
   D21        1.05746   0.00073   0.00771   0.00244   0.01019   1.06765
   D22       -0.97162  -0.00094  -0.01020   0.00125  -0.00896  -0.98058
   D23        1.14135  -0.00115  -0.01437   0.00484  -0.00955   1.13180
   D24       -3.10327  -0.00034  -0.00287   0.00200  -0.00087  -3.10414
   D25        1.04923   0.00040  -0.00022   0.00667   0.00644   1.05566
   D26       -3.12099   0.00019  -0.00440   0.01026   0.00584  -3.11515
   D27       -1.08242   0.00100   0.00711   0.00741   0.01452  -1.06790
   D28        3.09401  -0.00013  -0.00039  -0.00164  -0.00205   3.09196
   D29        0.97159   0.00094   0.01021  -0.00125   0.00897   0.98056
   D30       -1.04927  -0.00040   0.00020  -0.00663  -0.00641  -1.05568
   D31        0.98104   0.00008   0.00378  -0.00522  -0.00145   0.97959
   D32       -1.14139   0.00115   0.01438  -0.00483   0.00957  -1.13181
   D33        3.12094  -0.00019   0.00438  -0.01021  -0.00581   3.11513
   D34       -1.05752  -0.00073  -0.00771  -0.00239  -0.01014  -1.06766
   D35        3.10324   0.00034   0.00289  -0.00200   0.00088   3.10412
   D36        1.08238  -0.00100  -0.00712  -0.00738  -0.01450   1.06788
   D37        1.13364  -0.00011  -0.00210   0.03180   0.02972   1.16335
   D38       -1.01246   0.00061  -0.00186   0.03966   0.03781  -0.97465
   D39       -3.02884  -0.00050  -0.01128   0.03540   0.02414  -3.00470
   D40       -3.02832  -0.00043  -0.00996   0.03383   0.02386  -3.00447
   D41        1.10876   0.00029  -0.00971   0.04169   0.03195   1.14071
   D42       -0.90762  -0.00081  -0.01913   0.03743   0.01828  -0.88934
   D43       -1.00772   0.00039  -0.00353   0.03832   0.03480  -0.97292
   D44        3.12936   0.00111  -0.00328   0.04618   0.04290  -3.11092
   D45        1.11299   0.00000  -0.01270   0.04192   0.02923   1.14221
   D46        3.09445  -0.00017  -0.00032  -0.00227  -0.00263   3.09182
   D47        1.00562  -0.00022   0.00124  -0.00468  -0.00346   1.00216
   D48       -1.09516  -0.00025  -0.00483   0.00190  -0.00298  -1.09813
   D49       -1.04676  -0.00039   0.00123  -0.00899  -0.00776  -1.05452
   D50       -3.13560  -0.00043   0.00279  -0.01139  -0.00858   3.13900
   D51        1.04681  -0.00047  -0.00328  -0.00481  -0.00810   1.03871
   D52        0.97591   0.00069   0.00791  -0.00209   0.00585   0.98176
   D53       -1.11292   0.00065   0.00947  -0.00450   0.00502  -1.10791
   D54        3.06949   0.00061   0.00340   0.00208   0.00550   3.07499
         Item               Value     Threshold  Converged?
 Maximum Force            0.006516     0.000450     NO 
 RMS     Force            0.001872     0.000300     NO 
 Maximum Displacement     0.085617     0.001800     NO 
 RMS     Displacement     0.027441     0.001200     NO 
 Predicted change in Energy=-6.691558D-04
 GradGradGradGradGradGradGradGradGradGradGradGradGradGradGradGradGradGrad

                          Input orientation:                          
 ---------------------------------------------------------------------
 Center     Atomic      Atomic             Coordinates (Angstroms)
 Number     Number       Type             X           Y           Z
 ---------------------------------------------------------------------
      1          6           0        2.953983    3.117390    0.620531
      2          6           0        3.523903    4.562930    0.713739
      3          6           0        4.497918    4.934595   -0.451386
      4          6           0        5.832467    4.123519   -0.438705
      5          6           0        6.798240    4.581139   -1.577516
      6          6           0        8.178902    3.847672   -1.565114
      7          6           0        8.087400    2.328637   -1.892589
      8          1           0        3.755651    2.367802    0.694551
      9          1           0        2.429546    2.967187   -0.335500
     10          1           0        2.239177    2.935937    1.437662
     11          1           0        4.046628    4.688281    1.678268
     12          1           0        2.683151    5.278721    0.704649
     13          1           0        4.734384    6.010759   -0.378489
     14          1           0        3.985543    4.779079   -1.417136
     15          1           0        6.330911    4.257598    0.537368
     16          1           0        5.612982    3.048885   -0.549745
     17          1           0        6.978619    5.665919   -1.477183
     18          1           0        6.310714    4.421785   -2.555432
     19          1           0        8.652077    3.980598   -0.576326
     20          1           0        8.836321    4.333298   -2.307594
     21          1           0        9.093454    1.882775   -1.917922
     22          1           0        7.615732    2.170360   -2.874459
     23          1           0        7.494900    1.793236   -1.136070
 ---------------------------------------------------------------------
                    Distance matrix (angstroms):
                    1          2          3          4          5
     1  C    0.000000
     2  C    1.556625   0.000000
     3  C    2.614379   1.563444   0.000000
     4  C    3.227995   2.617380   1.561738   0.000000
     5  C    4.663935   3.996431   2.585456   1.561737   0.000000
     6  C    5.710529   5.231996   3.996428   2.617374   1.563443
     7  C    5.769738   5.710561   4.663953   3.228018   2.614377
     8  H    1.100015   2.207411   2.907328   2.946180   4.395281
     9  H    1.100723   2.201117   2.856972   3.595501   4.820055
    10  H    1.100716   2.195835   3.558799   4.224079   5.708156
    11  H    2.186408   1.104206   2.190835   2.826614   4.264150
    12  H    2.179857   1.104221   2.179041   3.544000   4.756979
    13  H    3.541109   2.180467   1.104246   2.184282   2.782262
    14  H    2.824432   2.190996   1.104259   2.190483   2.824211
    15  H    3.565197   2.829068   2.189936   1.104147   2.189933
    16  H    2.905945   2.872799   2.192931   1.102426   2.192932
    17  H    5.205103   4.236955   2.782260   2.184285   1.104243
    18  H    4.801649   4.298106   2.824219   2.190483   1.104262
    19  H    5.886075   5.319920   4.264124   2.826582   2.190832
    20  H    6.682384   6.115796   4.756974   3.543994   2.179039
    21  H    6.757302   6.717795   5.708177   4.224104   3.558799
    22  H    5.902858   5.944966   4.820067   3.595520   2.856958
    23  H    5.045688   5.182839   4.395319   2.946222   2.907338
                    6          7          8          9         10
     6  C    0.000000
     7  C    1.556624   0.000000
     8  H    5.182784   5.045679   0.000000
     9  H    5.944939   5.902845   1.782925   0.000000
    10  H    6.717758   6.757300   1.781765   1.783627   0.000000
    11  H    5.319947   5.886151   2.537122   3.103608   2.528929
    12  H    6.115799   6.682405   3.102226   2.547433   2.494606
    13  H    4.236948   5.205116   3.921794   3.818044   4.356489
    14  H    4.298102   4.801661   3.213461   2.621835   3.820582
    15  H    2.829053   3.565226   3.198124   4.200918   4.393132
    16  H    2.872800   2.905982   2.337055   3.191684   3.917283
    17  H    2.180467   3.541103   5.097208   5.411161   6.197697
    18  H    2.190996   2.824401   4.616230   4.701853   5.893213
    19  H    1.104204   2.186409   5.309541   6.309112   6.802408
    20  H    1.104223   2.179857   6.220069   6.841212   7.713746
    21  H    2.195836   1.100718   5.962584   6.934528   7.703909
    22  H    2.201118   1.100723   5.260898   5.829046   6.934541
    23  H    2.207407   1.100015   4.202771   5.260883   5.962591
                   11         12         13         14         15
    11  H    0.000000
    12  H    1.776408   0.000000
    13  H    2.540119   2.432411   0.000000
    14  H    3.097338   2.539259   1.776678   0.000000
    15  H    2.589418   3.791678   2.541902   3.097221   0.000000
    16  H    3.178856   3.889676   3.094182   2.528735   1.777139
    17  H    4.416924   4.833359   2.522426   3.122274   2.541911
    18  H    4.808463   4.951936   3.122296   2.613388   3.097220
    19  H    5.176308   6.241322   4.416901   4.808438   2.589374
    20  H    6.241335   6.915846   4.833344   4.951937   3.791651
    21  H    6.802492   7.713774   6.197709   5.893226   4.393162
    22  H    6.309180   6.841219   5.411164   4.701859   4.200939
    23  H    5.309648   6.220111   5.097242   4.616259   3.198178
                   16         17         18         19         20
    16  H    0.000000
    17  H    3.094184   0.000000
    18  H    2.528728   1.776678   0.000000
    19  H    3.178820   2.540141   3.097336   0.000000
    20  H    3.889687   2.432390   2.539280   1.776410   0.000000
    21  H    3.917321   4.356484   3.820554   2.528943   2.494599
[...]
     11          1           0        4.051980    4.680706    1.678220
     12          1           0        2.684980    5.276004    0.711913
     13          1           0        4.727147    6.012417   -0.385918
     14          1           0        3.987612    4.768195   -1.416934
     15          1           0        6.337187    4.285422    0.541450
     16          1           0        5.624974    3.056319   -0.527607
     17          1           0        6.977491    5.666651   -1.487579
     18          1           0        6.307016    4.411821   -2.552407
     19          1           0        8.647115    3.974655   -0.571349
     20          1           0        8.840207    4.330251   -2.301402
     21          1           0        9.084920    1.876501   -1.913824
     22          1           0        7.615368    2.176266   -2.880165
     23          1           0        7.480336    1.795315   -1.143011
 ---------------------------------------------------------------------
                    Distance matrix (angstroms):
                    1          2          3          4          5
     1  C    0.000000
     2  C    1.556184   0.000000
     3  C    2.611390   1.563319   0.000000
     4  C    3.230036   2.615053   1.561038   0.000000
     5  C    4.659802   3.995227   2.585590   1.561038   0.000000
     6  C    5.704271   5.228157   3.995226   2.615053   1.563319
     7  C    5.760538   5.704271   4.659800   3.230036   2.611390
     8  H    1.100076   2.206133   2.900590   2.944983   4.384896
     9  H    1.100850   2.200020   2.854010   3.603915   4.819122
    10  H    1.100909   2.196517   3.557476   4.223446   5.703577
    11  H    2.186429   1.104179   2.190815   2.817500   4.260694
    12  H    2.179074   1.104308   2.180953   3.542754   4.758587
    13  H    3.539329   2.182110   1.104320   2.182841   2.785534
    14  H    2.814419   2.190890   1.104182   2.190026   2.821276
    15  H    3.578395   2.829743   2.188945   1.104147   2.188944
    16  H    2.903694   2.865492   2.191632   1.102346   2.191632
    17  H    5.205466   4.240882   2.785535   2.182841   1.104320
    18  H    4.789376   4.292935   2.821275   2.190026   1.104182
    19  H    5.876395   5.312360   4.260695   2.817499   2.190815
    20  H    6.678388   6.114644   4.758587   3.542754   2.180953
    21  H    6.744822   6.709170   5.703575   4.223444   3.557475
    22  H    5.899663   5.943863   4.819122   3.603918   2.854011
    23  H    5.030191   5.170403   4.384892   2.944981   2.900588
                    6          7          8          9         10
     6  C    0.000000
     7  C    1.556184   0.000000
     8  H    5.170405   5.030195   0.000000
     9  H    5.943859   5.899658   1.783553   0.000000
    10  H    6.709171   6.744825   1.781974   1.784169   0.000000
    11  H    5.312361   5.876398   2.537260   3.103118   2.529065
    12  H    6.114644   6.678387   3.101131   2.544573   2.496194
    13  H    4.240882   5.205464   3.919035   3.811689   4.357543
    14  H    4.292935   4.789373   3.195185   2.610922   3.814759
    15  H    2.829743   3.578398   3.216335   4.217783   4.402420
    16  H    2.865490   2.903693   2.326208   3.204788   3.909580
    17  H    2.182110   3.539329   5.092859   5.411021   6.199233
    18  H    2.190890   2.814418   4.594806   4.692523   5.881444
    19  H    1.104179   2.186428   5.295132   6.304661   6.789463
    20  H    1.104308   2.179074   6.208979   6.842522   7.707813
    21  H    2.196517   1.100909   5.943469   6.929024   7.686893
    22  H    2.200020   1.100850   5.250876   5.831767   6.929032
    23  H    2.206133   1.100076   4.182365   5.250865   5.943469
                   11         12         13         14         15
    11  H    0.000000
    12  H    1.776744   0.000000
    13  H    2.547542   2.432691   0.000000
    14  H    3.097059   2.546902   1.777074   0.000000
    15  H    2.582763   3.787998   2.536681   3.096585   0.000000
    16  H    3.158895   3.886770   3.092682   2.530292   1.777871
    17  H    4.421876   4.839010   2.529280   3.122754   2.536680
    18  H    4.801634   4.951943   3.122749   2.606902   3.096585
    19  H    5.164720   6.235970   4.421878   4.801634   2.582763
    20  H    6.235970   6.918189   4.839010   4.951945   3.787998
    21  H    6.789464   7.707811   6.199232   5.881441   4.402420
    22  H    6.304667   6.842523   5.411020   4.692521   4.217788
    23  H    5.295135   6.208976   5.092856   4.594798   3.216338
                   16         17         18         19         20
    16  H    0.000000
    17  H    3.092682   0.000000
    18  H    2.530293   1.777075   0.000000
    19  H    3.158891   2.547543   3.097058   0.000000
    20  H    3.886769   2.432691   2.546902   1.776744   0.000000
    21  H    3.909577   4.357543   3.814759   2.529064   2.496195
    22  H    3.204791   3.811689   2.610923   3.103118   2.544572
    23  H    2.326203   3.919034   3.195181   2.537261   3.101132
                   21         22         23
    21  H    0.000000
    22  H    1.784169   0.000000
    23  H    1.781974   1.783553   0.000000
 Stoichiometry    C7H16
 Framework group  C1[X(C7H16)]
 Deg. of freedom    63
 Full point group                 C1      NOp   1
 Largest Abelian subgroup         C1      NOp   1
 Largest concise Abelian subgroup C1      NOp   1
                         Standard orientation:                         
 ---------------------------------------------------------------------
 Center     Atomic      Atomic             Coordinates (Angstroms)
 Number     Number       Type             X           Y           Z
 ---------------------------------------------------------------------
      1          6           0       -2.880269    1.173800    0.117095
      2          6           0       -2.614079   -0.303447   -0.293506
      3          6           0       -1.292794   -0.891587    0.300015
      4          6           0        0.000000   -0.233963   -0.277094
      5          6           0        1.292795   -0.891588    0.300012
      6          6           0        2.614078   -0.303446   -0.293508
      7          6           0        2.880269    1.173800    0.117098
      8          1           0       -2.091184    1.839600   -0.262670
      9          1           0       -2.915882    1.271124    1.213056
     10          1           0       -3.843448    1.516809   -0.291110
     11          1           0       -2.582361   -0.377340   -1.394753
     12          1           0       -3.459094   -0.925919    0.049968
     13          1           0       -1.264639   -1.975134    0.088700
     14          1           0       -1.303450   -0.774071    1.397874
     15          1           0       -0.000001   -0.335488   -1.376564
     16          1           0        0.000001    0.843937   -0.046233
     17          1           0        1.264640   -1.975135    0.088695
     18          1           0        1.303452   -0.774075    1.397871
     19          1           0        2.582359   -0.377334   -1.394756
     20          1           0        3.459095   -0.925919    0.049962
     21          1           0        3.843445    1.516812   -0.291110
     22          1           0        2.915886    1.271119    1.213060
     23          1           0        2.091181    1.839601   -0.262661
 ---------------------------------------------------------------------
 Rotational constants (GHZ):      5.0454858      0.9687199      0.8642356

 **********************************************************************

            Population analysis using the SCF density.

 **********************************************************************

 Orbital symmetries:
       Occupied  (A) (A) (A) (A) (A) (A) (A) (A) (A) (A) (A) (A)
                 (A) (A) (A) (A) (A) (A) (A) (A) (A) (A) (A) (A)
                 (A) (A) (A) (A) (A)
       Virtual   (A) (A) (A) (A) (A) (A) (A) (A) (A) (A) (A) (A)
                 (A) (A) (A) (A) (A) (A) (A) (A) (A) (A)
 The electronic state is 1-A.
 Alpha  occ. eigenvalues --  -10.00750 -10.00750 -10.00436 -10.00410 -10.00240
 Alpha  occ. eigenvalues --   -9.99910  -9.99910  -0.75934  -0.73085  -0.68355
 Alpha  occ. eigenvalues --   -0.63249  -0.58845  -0.53634  -0.52845  -0.43086
 Alpha  occ. eigenvalues --   -0.41641  -0.39527  -0.39035  -0.38321  -0.35062
 Alpha  occ. eigenvalues --   -0.33603  -0.33572  -0.31621  -0.30678  -0.29172
 Alpha  occ. eigenvalues --   -0.28885  -0.28083  -0.27083  -0.25675
 Alpha virt. eigenvalues --    0.33645   0.35969   0.37150   0.39003   0.39054
 Alpha virt. eigenvalues --    0.41001   0.41344   0.42158   0.43367   0.46537
 Alpha virt. eigenvalues --    0.47010   0.47030   0.48206   0.49117   0.49252
 Alpha virt. eigenvalues --    0.50770   0.51320   0.51663   0.52207   0.53567
 Alpha virt. eigenvalues --    0.53759   0.55545
          Condensed to atoms (all electrons):
               1          2          3          4          5          6
     1  C    4.785982   0.359637  -0.019459  -0.001580   0.000005   0.000000
     2  C    0.359637   4.776187   0.357036  -0.018528   0.000576  -0.000003
     3  C   -0.019459   0.357036   4.788129   0.358522  -0.019291   0.000576
     4  C   -0.001580  -0.018528   0.358522   4.788498   0.358522  -0.018528
     5  C    0.000005   0.000576  -0.019291   0.358522   4.788129   0.357036
     6  C    0.000000  -0.000003   0.000576  -0.018528   0.357036   4.776187
     7  C    0.000000   0.000000   0.000005  -0.001580  -0.019459   0.359637
     8  H    0.379724  -0.019228  -0.001497  -0.000352  -0.000005   0.000000
     9  H    0.379375  -0.019659  -0.002060   0.000011  -0.000002   0.000000
    10  H    0.379632  -0.018688   0.001123   0.000014   0.000000   0.000000
    11  H   -0.021421   0.377804  -0.021338  -0.002415   0.000007   0.000000
    12  H   -0.021717   0.378305  -0.020771   0.001114  -0.000012   0.000000
    13  H    0.001141  -0.020746   0.377739  -0.021798  -0.002295   0.000007
    14  H   -0.002409  -0.021254   0.377230  -0.021410  -0.001813   0.000003
    15  H    0.000023  -0.002028  -0.021261   0.377331  -0.021261  -0.002028
    16  H   -0.000370  -0.001512  -0.020994   0.378139  -0.020994  -0.001512
    17  H    0.000000   0.000007  -0.002295  -0.021798   0.377739  -0.020746
    18  H    0.000001   0.000003  -0.001813  -0.021410   0.377230  -0.021254
    19  H    0.000000   0.000000   0.000007  -0.002415  -0.021339   0.377804
    20  H    0.000000   0.000000  -0.000012   0.001114  -0.020771   0.378305
    21  H    0.000000   0.000000   0.000000   0.000014   0.001123  -0.018688
    22  H    0.000000   0.000000  -0.000002   0.000011  -0.002060  -0.019660
    23  H    0.000000   0.000000  -0.000005  -0.000352  -0.001497  -0.019228
               7          8          9         10         11         12
     1  C    0.000000   0.379724   0.379375   0.379632  -0.021421  -0.021717
     2  C    0.000000  -0.019228  -0.019659  -0.018688   0.377804   0.378305
     3  C    0.000005  -0.001497  -0.002060   0.001123  -0.021338  -0.020771
     4  C   -0.001580  -0.000352   0.000011   0.000014  -0.002415   0.001114
     5  C   -0.019459  -0.000005  -0.000002   0.000000   0.000007  -0.000012
     6  C    0.359637   0.000000   0.000000   0.000000   0.000000   0.000000
     7  C    4.785982   0.000000   0.000000   0.000000   0.000000   0.000000
     8  H    0.000000   0.613222  -0.021186  -0.021059  -0.002299   0.001822
     9  H    0.000000  -0.021186   0.613861  -0.020830   0.001807  -0.002032
    10  H    0.000000  -0.021059  -0.020830   0.612882  -0.001863  -0.002387
    11  H    0.000000  -0.002299   0.001807  -0.001863   0.624836  -0.022572
    12  H    0.000000   0.001822  -0.002032  -0.002387  -0.022572   0.625414
    13  H    0.000000  -0.000001   0.000016  -0.000030  -0.001487  -0.002986
    14  H    0.000001   0.000008   0.000605   0.000012   0.001796  -0.001503
    15  H    0.000023   0.000042   0.000003  -0.000004   0.000612   0.000013
    16  H   -0.000370   0.000071   0.000041  -0.000007   0.000018  -0.000001
    17  H    0.001141   0.000000   0.000000   0.000000   0.000002  -0.000001
    18  H   -0.002409   0.000000   0.000000   0.000000   0.000000   0.000000
    19  H   -0.021421   0.000000   0.000000   0.000000   0.000000   0.000000
    20  H   -0.021717   0.000000   0.000000   0.000000   0.000000   0.000000
    21  H    0.379632   0.000000   0.000000   0.000000   0.000000   0.000000
    22  H    0.379375   0.000000   0.000000   0.000000   0.000000   0.000000
    23  H    0.379724  -0.000001   0.000000   0.000000   0.000000   0.000000
              13         14         15         16         17         18
     1  C    0.001141  -0.002409   0.000023  -0.000370   0.000000   0.000001
     2  C   -0.020746  -0.021254  -0.002028  -0.001512   0.000007   0.000003
     3  C    0.377739   0.377230  -0.021261  -0.020994  -0.002295  -0.001813
     4  C   -0.021798  -0.021410   0.377331   0.378139  -0.021798  -0.021410
     5  C   -0.002295  -0.001813  -0.021261  -0.020994   0.377739   0.377230
     6  C    0.000007   0.000003  -0.002028  -0.001512  -0.020746  -0.021254
     7  C    0.000000   0.000001   0.000023  -0.000370   0.001141  -0.002409
     8  H   -0.000001   0.000008   0.000042   0.000071   0.000000   0.000000
     9  H    0.000016   0.000605   0.000003   0.000041   0.000000   0.000000
    10  H   -0.000030   0.000012  -0.000004  -0.000007   0.000000   0.000000
    11  H   -0.001487   0.001796   0.000612   0.000018   0.000002   0.000000
    12  H   -0.002986  -0.001503   0.000013  -0.000001  -0.000001   0.000000
    13  H    0.627213  -0.022661  -0.002101   0.001832   0.000644  -0.000006
    14  H   -0.022661   0.626314   0.001814  -0.002301  -0.000006   0.000509
    15  H   -0.002101   0.001814   0.627385  -0.023031  -0.002101   0.001814
    16  H    0.001832  -0.002301  -0.023031   0.625026   0.001832  -0.002301
    17  H    0.000644  -0.000006  -0.002101   0.001832   0.627213  -0.022661
    18  H   -0.000006   0.000509   0.001814  -0.002301  -0.022661   0.626314
    19  H    0.000002   0.000000   0.000612   0.000018  -0.001487   0.001796
    20  H   -0.000001   0.000000   0.000013  -0.000001  -0.002986  -0.001503
    21  H    0.000000   0.000000  -0.000004  -0.000007  -0.000030   0.000012
    22  H    0.000000   0.000000   0.000003   0.000041   0.000016   0.000605
    23  H    0.000000   0.000000   0.000042   0.000071  -0.000001   0.000008
              19         20         21         22         23
     1  C    0.000000   0.000000   0.000000   0.000000   0.000000
     2  C    0.000000   0.000000   0.000000   0.000000   0.000000
     3  C    0.000007  -0.000012   0.000000  -0.000002  -0.000005
     4  C   -0.002415   0.001114   0.000014   0.000011  -0.000352
     5  C   -0.021339  -0.020771   0.001123  -0.002060  -0.001497
     6  C    0.377804   0.378305  -0.018688  -0.019660  -0.019228
     7  C   -0.021421  -0.021717   0.379632   0.379375   0.379724
     8  H    0.000000   0.000000   0.000000   0.000000  -0.000001
     9  H    0.000000   0.000000   0.000000   0.000000   0.000000
    10  H    0.000000   0.000000   0.000000   0.000000   0.000000
    11  H    0.000000   0.000000   0.000000   0.000000   0.000000
    12  H    0.000000   0.000000   0.000000   0.000000   0.000000
    13  H    0.000002  -0.000001   0.000000   0.000000   0.000000
    14  H    0.000000   0.000000   0.000000   0.000000   0.000000
    15  H    0.000612   0.000013  -0.000004   0.000003   0.000042
    16  H    0.000018  -0.000001  -0.000007   0.000041   0.000071
    17  H   -0.001487  -0.002986  -0.000030   0.000016  -0.000001
    18  H    0.001796  -0.001503   0.000012   0.000605   0.000008
    19  H    0.624836  -0.022572  -0.001863   0.001807  -0.002299
    20  H   -0.022572   0.625414  -0.002387  -0.002032   0.001822
    21  H   -0.001863  -0.002387   0.612882  -0.020830  -0.021059
    22  H    0.001807  -0.002032  -0.020830   0.613861  -0.021186
    23  H   -0.002299   0.001822  -0.021059  -0.021186   0.613222
 Mulliken charges:
               1
     1  C   -0.218563
     2  C   -0.127909
     3  C   -0.129571
     4  C   -0.131126
     5  C   -0.129571
     6  C   -0.127909
     7  C   -0.218563
     8  H    0.070738
     9  H    0.070051
    10  H    0.071203
    11  H    0.066513
    12  H    0.067314
    13  H    0.065520
    14  H    0.065066
    15  H    0.064089
    16  H    0.066312
    17  H    0.065520
    18  H    0.065066
    19  H    0.066513
    20  H    0.067314
    21  H    0.071203
    22  H    0.070051
    23  H    0.070738
 Sum of Mulliken charges =   0.00000
 Mulliken charges with hydrogens summed into heavy atoms:
               1
     1  C   -0.006571
     2  C    0.005917
     3  C    0.001015
     4  C   -0.000724
     5  C    0.001015
     6  C    0.005917
     7  C   -0.006570
 Electronic spatial extent (au):  <R**2>=           1422.8311
 Charge=              0.0000 electrons
 Dipole moment (field-independent basis, Debye):
    X=              0.0000    Y=             -0.0477    Z=             -0.0065  Tot=              0.0482
 Quadrupole moment (field-independent basis, Debye-Ang):
   XX=            -45.0407   YY=            -45.0565   ZZ=            -44.5236
   XY=              0.0000   XZ=              0.0000   YZ=              0.0200
 Traceless Quadrupole moment (field-independent basis, Debye-Ang):
   XX=             -0.1671   YY=             -0.1829   ZZ=              0.3500
   XY=              0.0000   XZ=              0.0000   YZ=              0.0200
 Octapole moment (field-independent basis, Debye-Ang**2):
  XXX=              0.0000  YYY=             -1.5446  ZZZ=              0.6397  XYY=              0.0000
  XXY=             -0.5984  XXZ=             -0.2089  XZZ=              0.0000  YZZ=              0.1741
  YYZ=             -0.6336  XYZ=              0.0000
 Hexadecapole moment (field-independent basis, Debye-Ang**3):
 XXXX=          -1423.1494 YYYY=           -286.1371 ZZZZ=           -100.5771 XXXY=              0.0000
 XXXZ=              0.0000 YYYX=              0.0000 YYYZ=             -0.9416 ZZZX=              0.0000
 ZZZY=              2.1246 XXYY=           -288.5653 XXZZ=           -256.7470 YYZZ=            -67.4462
 XXYZ=             -2.9534 YYXZ=              0.0000 ZZXY=              0.0000
 N-N= 3.111200149043D+02 E-N=-1.252115217768D+03  KE= 2.682251787502D+02
 1\1\GINC-AVL06\FOpt\RB3LYP\STO-3G\C7H16\BING\17-Apr-2019\0\\# opt(GDII
 S) b3lyp/sto-3g\\c07h16_c01\\0,1\C,2.9560452788,3.1160455168,0.6146242
 663\C,3.5261875852,4.5605616342,0.7147261824\C,4.4976040807,4.93422529
 57,-0.4517608959\C,5.8375891198,4.1336827274,-0.4314419677\C,6.7980463
 721,4.5807627102,-1.5779507372\C,8.1777639915,3.8458436386,-1.56247364
 78\C,8.0812879681,2.3285493827,-1.8944673434\H,3.7592234538,2.36706748
 77,0.6786888781\H,2.4267513905,2.9734947961,-0.3400477765\H,2.24576783
 62,2.9273433894,1.4343175923\H,4.0519799315,4.6807057872,1.6782196973\
 H,2.6849798566,5.2760041716,0.7119127836\H,4.7271472571,6.0124165553,-
 0.3859183743\H,3.9876117908,4.7681946439,-1.416933759\H,6.3371867653,4
 .2854215655,0.5414498406\H,5.624974088,3.0563185431,-0.5276074606\H,6.
 977490841,5.6666514253,-1.487578982\H,6.3070159283,4.4118212685,-2.552
 4069101\H,8.6471151694,3.9746553937,-0.5713485975\H,8.8402065321,4.330
 2512308,-2.3014023987\H,9.0849202059,1.876501455,-1.9138239596\H,7.615
 3680821,2.1762663902,-2.8801650524\H,7.4803364751,1.7953149912,-1.1430
 11378\\Version=ES64L-G09RevD.01\State=1-A\HF=-273.1244936\RMSD=5.241e-
 09\RMSF=3.891e-06\Dipole=0.003058,0.018706,0.0003754\Quadrupole=-0.046
 8847,-0.1335244,0.1804091,0.0134071,0.1537969,0.0303007\PG=C01 [X(C7H1
 6)]\\@


 FOR THE NATURE OF THE CHEMICAL BOND
 IS THE PROBLEM AT THE HEART OF ALL CHEMISTRY.

                     -- BRYCE CRAWFORD, JR., 1953
 Job cpu time:       0 days  0 hours  4 minutes 14.2 seconds.
 File lengths (MBytes):  RWF=      5 Int=      0 D2E=      0 Chk=      2 Scr=      1
 Normal termination of Gaussian 09 at Wed Apr 17 15:02:34 2019.
