 Entering Gaussian System, Link 0=g09
 Input=c08h18.com
 Output=c08h18.out
 Initial command:
 /apps/g09_d.01/g09/l1.exe "/data/scratch/Gau-51399.inp" -scrdir="/data/scratch/"
 Entering Link 1 = /apps/g09_d.01/g09/l1.exe PID=     51404.
  
 Copyright (c) 1988,1990,1992,1993,1995,1998,2003,2009,2013,
            Gaussian, Inc.  All Rights Reserved.
  
 This is part of the Gaussian(R) 09 program.  It is based on
 the Gaussian(R) 03 system (copyright 2003, Gaussian, Inc.),
 the Gaussian(R) 98 system (copyright 1998, Gaussian, Inc.),
 the Gaussian(R) 94 system (copyright 1995, Gaussian, Inc.),
 the Gaussian 92(TM) system (copyright 1992, Gaussian, Inc.),
 the Gaussian 90(TM) system (copyright 1990, Gaussian, Inc.),
 the Gaussian 88(TM) system (copyright 1988, Gaussian, Inc.),
 the Gaussian 86(TM) system (copyright 1986, Carnegie Mellon
 University), and the Gaussian 82(TM) system (copyright 1983,
 Carnegie Mellon University). Gaussian is a federally registered
 trademark of Gaussian, Inc.
  
 This software contains proprietary and confidential information,
 including trade secrets, belonging to Gaussian, Inc.
  
 This software is provided under written license and may be
 used, copied, transmitted, or stored only in accord with that
 written license.
  
 The following legend is applicable only to US Government
 contracts under FAR:
  
                    RESTRICTED RIGHTS LEGEND
  
 Use, reproduction and disclosure by the US Government is
 subject to restrictions as set forth in subparagraphs (a)
 and (c) of the Commercial Computer Software - Restricted
 Rights clause in FAR 52.227-19.
  
 Gaussian, Inc.
 340 Quinnipiac St., Bldg. 40, Wallingford CT 06492
  
  
 ---------------------------------------------------------------
 Warning -- This program may not be used in any manner that
 competes with the business of Gaussian, Inc. or will provide
 assistance to any competitor of Gaussian, Inc.  The licensee
 of this program is prohibited from giving any competitor of
 Gaussian, Inc. access to this program.  By using this program,
 the user acknowledges that Gaussian, Inc. is engaged in the
 business of creating and licensing software in the field of
 computational chemistry and represents and warrants to the
 licensee that it is not a competitor of Gaussian, Inc. and that
 it will not use this program in any manner prohibited above.
 ---------------------------------------------------------------
  

 Cite this work as:
 Gaussian 09, Revision D.01,
 M. J. Frisch, G. W. Trucks, H. B. Schlegel, G. E. Scuseria, 
 M. A. Robb, J. R. Cheeseman, G. Scalmani, V. Barone, B. Mennucci, 
 G. A. Petersson, H. Nakatsuji, M. Caricato, X. Li, H. P. Hratchian, 
 A. F. Izmaylov, J. Bloino, G. Zheng, J. L. Sonnenberg, M. Hada, 
 M. Ehara, K. Toyota, R. Fukuda, J. Hasegawa, M. Ishida, T. Nakajima, 
 Y. Honda, O. Kitao, H. Nakai, T. Vreven, J. A. Montgomery, Jr., 
 J. E. Peralta, F. Ogliaro, M. Bearpark, J. J. Heyd, E. Brothers, 
 K. N. Kudin, V. N. Staroverov, T. Keith, R. Kobayashi, J. Normand, 
 K. Raghavachari, A. Rendell, J. C. Burant, S. S. Iyengar, J. Tomasi, 
 M. Cossi, N. Rega, J. M. Millam, M. Klene, J. E. Knox, J. B. Cross, 
 V. Bakken, C. Adamo, J. Jaramillo, R. Gomperts, R. E. Stratmann, 
 O. Yazyev, A. J. Austin, R. Cammi, C. Pomelli, J. W. Ochterski, 
 R. L. Martin, K. Morokuma, V. G. Zakrzewski, G. A. Voth, 
 P. Salvador, J. J. Dannenberg, S. Dapprich, A. D. Daniels, 
 O. Farkas, J. B. Foresman, J. V. Ortiz, J. Cioslowski, 
 and D. J. Fox, Gaussian, Inc., Wallingford CT, 2013.
 
 ******************************************
 Gaussian 09:  ES64L-G09RevD.01 24-Apr-2013
                28-Jan-2019 
 ******************************************
 %nproc=6
 Will use up to    6 processors via shared memory.
 -------------------------
 # opt(tight) b3lyp/sto-3g
 -------------------------
 1/7=10,14=-1,18=20,19=15,26=3,38=1/1,3;
 2/9=110,12=2,17=6,18=5,40=1/2;
 3/6=3,11=2,16=1,25=1,30=1,71=1,74=-5/1,2,3;
 4//1;
 5/5=2,38=5/2;
 6/7=2,8=2,9=2,10=2,28=1/1;
 7//1,2,3,16;
 1/7=10,14=-1,18=20,19=15,26=3/3(2);
 2/9=110/2;
 99//99;
 2/9=110/2;
 3/6=3,11=2,16=1,25=1,30=1,71=1,74=-5/1,2,3;
 4/5=5,16=3,69=1/1;
 5/5=2,38=5/2;
 7//1,2,3,16;
 1/7=10,14=-1,18=20,19=15,26=3/3(-5);
 2/9=110/2;
 6/7=2,8=2,9=2,10=2,19=2,28=1/1;
 99/9=1/99;
 ------
 c08h18
 ------
 Symbolic Z-matrix:
 Charge =  0 Multiplicity = 1
 C                     0.45188  -1.49275  -2.19358 
 C                     0.87075  -2.82729  -1.59771 
 C                     2.12071  -2.68537  -0.72956 
 C                     2.53872  -4.02996  -0.13211 
 C                     3.78962  -3.88805   0.73671 
 C                     4.20763  -5.23263   1.33415 
 C                     5.4576   -5.09072   2.20229 
 C                     5.87649  -6.42527   2.79814 
 H                     0.22418  -0.76612  -1.40713 
 H                    -0.44359  -1.61744  -2.81043 
 H                     1.24454  -1.07898  -2.8251 
 H                     0.04491  -3.22871  -0.99891 
 H                     1.05964  -3.53985  -2.40906 
 H                     1.92776  -1.96851   0.07788 
 H                     2.94245  -2.27962  -1.33221 
 H                     2.73175  -4.74662  -0.93966 
 H                     1.71695  -4.43547   0.4706 
 H                     3.59659  -3.17139   1.54427 
 H                     4.61139  -3.48252   0.13401 
 H                     4.40058  -5.94949   0.52671 
 H                     3.3859   -5.63839   1.9368 
 H                     6.28343  -4.68928   1.60349 
 H                     5.26871  -4.37818   3.01366 
 H                     6.10418  -7.15188   2.01167 
 H                     6.77196  -6.30058   3.41499 
 H                     5.08383  -6.83905   3.42965 
 

 GradGradGradGradGradGradGradGradGradGradGradGradGradGradGradGradGradGrad
 Berny optimization.
 Initialization pass.
                           ----------------------------
                           !    Initial Parameters    !
                           ! (Angstroms and Degrees)  !
 --------------------------                            --------------------------
 ! Name  Definition              Value          Derivative Info.                !
 --------------------------------------------------------------------------------
 ! R1    R(1,2)                  1.5204         estimate D2E/DX2                !
 ! R2    R(1,9)                  1.0947         estimate D2E/DX2                !
 ! R3    R(1,10)                 1.0945         estimate D2E/DX2                !
 ! R4    R(1,11)                 1.0947         estimate D2E/DX2                !
 ! R5    R(2,3)                  1.5285         estimate D2E/DX2                !
 ! R6    R(2,12)                 1.0962         estimate D2E/DX2                !
 ! R7    R(2,13)                 1.0962         estimate D2E/DX2                !
 ! R8    R(3,4)                  1.5296         estimate D2E/DX2                !
 ! R9    R(3,14)                 1.0968         estimate D2E/DX2                !
 ! R10   R(3,15)                 1.0968         estimate D2E/DX2                !
 ! R11   R(4,5)                  1.5296         estimate D2E/DX2                !
 ! R12   R(4,16)                 1.0968         estimate D2E/DX2                !
 ! R13   R(4,17)                 1.0968         estimate D2E/DX2                !
 ! R14   R(5,6)                  1.5296         estimate D2E/DX2                !
 ! R15   R(5,18)                 1.0968         estimate D2E/DX2                !
 ! R16   R(5,19)                 1.0968         estimate D2E/DX2                !
 ! R17   R(6,7)                  1.5285         estimate D2E/DX2                !
 ! R18   R(6,20)                 1.0968         estimate D2E/DX2                !
 ! R19   R(6,21)                 1.0968         estimate D2E/DX2                !
 ! R20   R(7,8)                  1.5204         estimate D2E/DX2                !
 ! R21   R(7,22)                 1.0962         estimate D2E/DX2                !
 ! R22   R(7,23)                 1.0962         estimate D2E/DX2                !
 ! R23   R(8,24)                 1.0947         estimate D2E/DX2                !
 ! R24   R(8,25)                 1.0945         estimate D2E/DX2                !
 ! R25   R(8,26)                 1.0947         estimate D2E/DX2                !
 ! A1    A(2,1,9)              111.0011         estimate D2E/DX2                !
 ! A2    A(2,1,10)             110.2608         estimate D2E/DX2                !
 ! A3    A(2,1,11)             111.0013         estimate D2E/DX2                !
 ! A4    A(9,1,10)             108.0797         estimate D2E/DX2                !
 ! A5    A(9,1,11)             108.3111         estimate D2E/DX2                !
 ! A6    A(10,1,11)            108.0806         estimate D2E/DX2                !
 ! A7    A(1,2,3)              111.4944         estimate D2E/DX2                !
 ! A8    A(1,2,12)             109.145          estimate D2E/DX2                !
 ! A9    A(1,2,13)             109.1451         estimate D2E/DX2                !
 ! A10   A(3,2,12)             109.866          estimate D2E/DX2                !
 ! A11   A(3,2,13)             109.8663         estimate D2E/DX2                !
 ! A12   A(12,2,13)            107.2219         estimate D2E/DX2                !
 ! A13   A(2,3,4)              111.3289         estimate D2E/DX2                !
 ! A14   A(2,3,14)             109.5692         estimate D2E/DX2                !
 ! A15   A(2,3,15)             109.5692         estimate D2E/DX2                !
 ! A16   A(4,3,14)             109.5761         estimate D2E/DX2                !
 ! A17   A(4,3,15)             109.5758         estimate D2E/DX2                !
 ! A18   A(14,3,15)            107.1269         estimate D2E/DX2                !
 ! A19   A(3,4,5)              111.3333         estimate D2E/DX2                !
 ! A20   A(3,4,16)             109.5659         estimate D2E/DX2                !
 ! A21   A(3,4,17)             109.5656         estimate D2E/DX2                !
 ! A22   A(5,4,16)             109.5661         estimate D2E/DX2                !
 ! A23   A(5,4,17)             109.566          estimate D2E/DX2                !
 ! A24   A(16,4,17)            107.1499         estimate D2E/DX2                !
 ! A25   A(4,5,6)              111.3333         estimate D2E/DX2                !
 ! A26   A(4,5,18)             109.5663         estimate D2E/DX2                !
 ! A27   A(4,5,19)             109.5663         estimate D2E/DX2                !
 ! A28   A(6,5,18)             109.5657         estimate D2E/DX2                !
 ! A29   A(6,5,19)             109.5661         estimate D2E/DX2                !
 ! A30   A(18,5,19)            107.1489         estimate D2E/DX2                !
 ! A31   A(5,6,7)              111.3292         estimate D2E/DX2                !
 ! A32   A(5,6,20)             109.5763         estimate D2E/DX2                !
 ! A33   A(5,6,21)             109.5764         estimate D2E/DX2                !
 ! A34   A(7,6,20)             109.5685         estimate D2E/DX2                !
 ! A35   A(7,6,21)             109.5692         estimate D2E/DX2                !
 ! A36   A(20,6,21)            107.1265         estimate D2E/DX2                !
 ! A37   A(6,7,8)              111.4948         estimate D2E/DX2                !
 ! A38   A(6,7,22)             109.866          estimate D2E/DX2                !
 ! A39   A(6,7,23)             109.8661         estimate D2E/DX2                !
 ! A40   A(8,7,22)             109.1451         estimate D2E/DX2                !
 ! A41   A(8,7,23)             109.1446         estimate D2E/DX2                !
 ! A42   A(22,7,23)            107.222          estimate D2E/DX2                !
 ! A43   A(7,8,24)             111.0005         estimate D2E/DX2                !
 ! A44   A(7,8,25)             110.2609         estimate D2E/DX2                !
 ! A45   A(7,8,26)             111.0007         estimate D2E/DX2                !
 ! A46   A(24,8,25)            108.0806         estimate D2E/DX2                !
 ! A47   A(24,8,26)            108.3111         estimate D2E/DX2                !
 ! A48   A(25,8,26)            108.081          estimate D2E/DX2                !
 ! D1    D(9,1,2,3)            -60.2603         estimate D2E/DX2                !
 ! D2    D(9,1,2,12)            61.2945         estimate D2E/DX2                !
 ! D3    D(9,1,2,13)           178.1844         estimate D2E/DX2                !
 ! D4    D(10,1,2,3)          -179.9994         estimate D2E/DX2                !
 ! D5    D(10,1,2,12)          -58.4445         estimate D2E/DX2                !
 ! D6    D(10,1,2,13)           58.4453         estimate D2E/DX2                !
 ! D7    D(11,1,2,3)            60.2602         estimate D2E/DX2                !
 ! D8    D(11,1,2,12)         -178.1849         estimate D2E/DX2                !
 ! D9    D(11,1,2,13)          -61.295          estimate D2E/DX2                !
 ! D10   D(1,2,3,4)           -179.9994         estimate D2E/DX2                !
 ! D11   D(1,2,3,14)            58.6316         estimate D2E/DX2                !
 ! D12   D(1,2,3,15)           -58.6308         estimate D2E/DX2                !
 ! D13   D(12,2,3,4)            58.865          estimate D2E/DX2                !
 ! D14   D(12,2,3,14)          -62.5039         estimate D2E/DX2                !
 ! D15   D(12,2,3,15)         -179.7663         estimate D2E/DX2                !
 ! D16   D(13,2,3,4)           -58.8635         estimate D2E/DX2                !
 ! D17   D(13,2,3,14)          179.7675         estimate D2E/DX2                !
 ! D18   D(13,2,3,15)           62.5051         estimate D2E/DX2                !
 ! D19   D(2,3,4,5)            179.9997         estimate D2E/DX2                !
 ! D20   D(2,3,4,16)            58.6426         estimate D2E/DX2                !
 ! D21   D(2,3,4,17)           -58.6436         estimate D2E/DX2                !
 ! D22   D(14,3,4,5)           -58.6353         estimate D2E/DX2                !
 ! D23   D(14,3,4,16)         -179.9924         estimate D2E/DX2                !
 ! D24   D(14,3,4,17)           62.7213         estimate D2E/DX2                !
 ! D25   D(15,3,4,5)            58.635          estimate D2E/DX2                !
 ! D26   D(15,3,4,16)          -62.7221         estimate D2E/DX2                !
 ! D27   D(15,3,4,17)          179.9917         estimate D2E/DX2                !
 ! D28   D(3,4,5,6)           -179.9997         estimate D2E/DX2                !
 ! D29   D(3,4,5,18)            58.6434         estimate D2E/DX2                !
 ! D30   D(3,4,5,19)           -58.6424         estimate D2E/DX2                !
 ! D31   D(16,4,5,6)           -58.6428         estimate D2E/DX2                !
 ! D32   D(16,4,5,18)         -179.9997         estimate D2E/DX2                !
 ! D33   D(16,4,5,19)           62.7146         estimate D2E/DX2                !
 ! D34   D(17,4,5,6)            58.6438         estimate D2E/DX2                !
 ! D35   D(17,4,5,18)          -62.7131         estimate D2E/DX2                !
 ! D36   D(17,4,5,19)         -179.9988         estimate D2E/DX2                !
 ! D37   D(4,5,6,7)            179.9997         estimate D2E/DX2                !
 ! D38   D(4,5,6,20)            58.6352         estimate D2E/DX2                !
 ! D39   D(4,5,6,21)           -58.6351         estimate D2E/DX2                !
 ! D40   D(18,5,6,7)           -58.6432         estimate D2E/DX2                !
 ! D41   D(18,5,6,20)          179.9924         estimate D2E/DX2                !
 ! D42   D(18,5,6,21)           62.7221         estimate D2E/DX2                !
 ! D43   D(19,5,6,7)            58.6421         estimate D2E/DX2                !
 ! D44   D(19,5,6,20)          -62.7223         estimate D2E/DX2                !
 ! D45   D(19,5,6,21)         -179.9926         estimate D2E/DX2                !
 ! D46   D(5,6,7,8)           -179.9997         estimate D2E/DX2                !
 ! D47   D(5,6,7,22)           -58.8637         estimate D2E/DX2                !
 ! D48   D(5,6,7,23)            58.865          estimate D2E/DX2                !
 ! D49   D(20,6,7,8)           -58.6307         estimate D2E/DX2                !
 ! D50   D(20,6,7,22)           62.5053         estimate D2E/DX2                !
 ! D51   D(20,6,7,23)         -179.766          estimate D2E/DX2                !
 ! D52   D(21,6,7,8)            58.6309         estimate D2E/DX2                !
 ! D53   D(21,6,7,22)          179.7668         estimate D2E/DX2                !
 ! D54   D(21,6,7,23)          -62.5044         estimate D2E/DX2                !
 ! D55   D(6,7,8,24)            60.2601         estimate D2E/DX2                !
 ! D56   D(6,7,8,25)          -180.0            estimate D2E/DX2                !
 ! D57   D(6,7,8,26)           -60.2595         estimate D2E/DX2                !
 ! D58   D(22,7,8,24)          -61.2951         estimate D2E/DX2                !
 ! D59   D(22,7,8,25)           58.4448         estimate D2E/DX2                !
 ! D60   D(22,7,8,26)          178.1853         estimate D2E/DX2                !
 ! D61   D(23,7,8,24)         -178.1849         estimate D2E/DX2                !
 ! D62   D(23,7,8,25)          -58.445          estimate D2E/DX2                !
 ! D63   D(23,7,8,26)           61.2954         estimate D2E/DX2                !
 --------------------------------------------------------------------------------
 Trust Radius=3.00D-01 FncErr=1.00D-07 GrdErr=1.00D-06
 Number of steps in this run=    146 maximum allowed number of steps=    156.
 GradGradGradGradGradGradGradGradGradGradGradGradGradGradGradGradGradGrad

                          Input orientation:                          
 ---------------------------------------------------------------------
 Center     Atomic      Atomic             Coordinates (Angstroms)
 Number     Number       Type             X           Y           Z
 ---------------------------------------------------------------------
      1          6           0        0.451880   -1.492750   -2.193580
      2          6           0        0.870750   -2.827290   -1.597710
      3          6           0        2.120710   -2.685370   -0.729560
      4          6           0        2.538720   -4.029960   -0.132110
      5          6           0        3.789620   -3.888050    0.736710
      6          6           0        4.207630   -5.232630    1.334150
      7          6           0        5.457600   -5.090720    2.202290
      8          6           0        5.876490   -6.425270    2.798140
      9          1           0        0.224180   -0.766120   -1.407130
     10          1           0       -0.443590   -1.617440   -2.810430
     11          1           0        1.244540   -1.078980   -2.825100
     12          1           0        0.044910   -3.228710   -0.998910
     13          1           0        1.059640   -3.539850   -2.409060
     14          1           0        1.927760   -1.968510    0.077880
     15          1           0        2.942450   -2.279620   -1.332210
     16          1           0        2.731750   -4.746620   -0.939660
     17          1           0        1.716950   -4.435470    0.470600
     18          1           0        3.596590   -3.171390    1.544270
     19          1           0        4.611390   -3.482520    0.134010
     20          1           0        4.400580   -5.949490    0.526710
     21          1           0        3.385900   -5.638390    1.936800
     22          1           0        6.283430   -4.689280    1.603490
     23          1           0        5.268710   -4.378180    3.013660
     24          1           0        6.104180   -7.151880    2.011670
     25          1           0        6.771960   -6.300580    3.414990
     26          1           0        5.083830   -6.839050    3.429650
 ---------------------------------------------------------------------
                    Distance matrix (angstroms):
                    1          2          3          4          5
     1  C    0.000000
     2  C    1.520365   0.000000
     3  C    2.520058   1.528472   0.000000
     4  C    3.878401   2.525178   1.529575   0.000000
     5  C    5.046243   3.885168   2.526192   1.529620   0.000000
     6  C    6.366886   5.051359   3.886215   2.526182   1.529563
     7  C    7.571413   6.371994   5.051365   3.885164   2.525173
     8  C    8.869804   7.571419   6.366899   5.046245   3.878402
     9  H    1.094688   2.168593   2.781986   4.199455   5.201429
    10  H    1.094494   2.159147   3.470753   4.678442   5.971427
    11  H    1.094684   2.168592   2.781987   4.199450   5.201423
    12  H    2.146257   1.096226   2.162571   2.759064   4.179708
    13  H    2.146258   1.096225   2.162574   2.759055   4.179701
    14  H    2.750291   2.159253   1.096849   2.160311   2.754127
    15  H    2.750284   2.159253   1.096849   2.160307   2.754119
    16  H    4.166268   2.753212   2.160154   1.096813   2.160196
    17  H    4.166276   2.753217   2.160152   1.096815   2.160195
    18  H    5.165129   4.173805   2.754041   2.160204   1.096821
    19  H    5.165112   4.173795   2.754031   2.160202   1.096817
    20  H    6.546353   5.169235   4.174985   2.754117   2.160303
    21  H    6.546361   5.169238   4.174986   2.754115   2.160300
    22  H    7.657840   6.558338   5.175617   4.179697   2.759052
    23  H    7.657866   6.558357   5.175636   4.179709   2.759064
    24  H    9.036502   7.688855   6.582711   5.201412   4.199440
    25  H    9.721867   8.486176   7.202858   5.971428   4.678444
    26  H    9.036515   7.688863   6.582717   5.201414   4.199441
                    6          7          8          9         10
     6  C    0.000000
     7  C    1.528473   0.000000
     8  C    2.520070   1.520372   0.000000
     9  H    6.582720   7.688873   9.036530   0.000000
    10  H    7.202846   8.486170   9.721867   1.771980   0.000000
    11  H    6.582710   7.688861   9.036515   1.774727   1.771987
    12  H    5.175626   6.558352   7.657866   2.502625   2.473141
    13  H    5.175613   6.558338   7.657847   3.065197   2.473147
    14  H    4.174985   5.169244   6.546372   2.559918   3.753516
    15  H    4.174976   5.169231   6.546357   3.112119   3.753516
    16  H    2.754022   4.173789   5.165114   4.727665   4.834701
    17  H    2.754028   4.173795   5.165125   4.383875   4.834706
    18  H    2.160146   2.753212   4.166278   5.086181   6.140133
    19  H    2.160149   2.753209   4.166275   5.385309   6.140120
    20  H    1.096849   2.159247   2.750286   6.931766   7.305419
    21  H    1.096845   2.159252   2.750295   6.702041   7.305424
    22  H    2.162572   1.096226   2.146264   7.821095   8.612299
    23  H    2.162575   1.096227   2.146258   7.618244   8.612321
    24  H    2.781988   2.168590   1.094687   9.329551   9.836461
    25  H    3.470764   2.159154   1.094494   9.836489  10.618466
    26  H    2.781983   2.168588   1.094682   9.159209   9.836472
                   11         12         13         14         15
    11  H    0.000000
    12  H    3.065195   0.000000
    13  H    2.502630   1.764939   0.000000
    14  H    3.112129   2.508526   3.067183   0.000000
    15  H    2.559913   3.067181   2.508537   1.764862   0.000000
    16  H    4.383864   3.086530   2.532071   3.065890   2.506906
    17  H    4.727667   2.532084   3.086524   2.506903   3.065887
    18  H    5.385324   4.368693   4.711761   2.526304   3.081767
    19  H    5.086159   4.711758   4.368686   3.081760   2.526288
    20  H    6.702021   5.357427   5.058358   4.707918   4.364593
    21  H    6.931763   5.058376   5.357411   4.364605   4.707909
    22  H    7.618208   6.915554   6.686533   5.357419   5.058354
    23  H    7.821111   6.686560   6.915559   5.058385   5.357427
    24  H    9.159179   7.821100   7.618202   6.931764   6.702014
    25  H    9.836473   8.612323   8.612304   7.305437   7.305421
    26  H    9.329547   7.618229   7.821084   6.702037   6.931755
                   16         17         18         19         20
    16  H    0.000000
    17  H    1.765068   0.000000
    18  H    3.065812   2.506733   0.000000
    19  H    2.506743   3.065810   1.765065   0.000000
    20  H    2.526288   3.081765   3.065888   2.506909   0.000000
    21  H    3.081751   2.526292   2.506902   3.065885   1.764855
    22  H    4.368676   4.711751   3.086520   2.532066   2.508527
    23  H    4.711757   4.368688   2.532081   3.086529   3.067179
    24  H    5.086149   5.385310   4.727660   4.383860   2.559903
    25  H    6.140119   6.140130   4.834708   4.834703   3.753514
    26  H    5.385296   5.086163   4.383865   4.727657   3.112107
                   21         22         23         24         25
    21  H    0.000000
    22  H    3.067179   0.000000
    23  H    2.508531   1.764942   0.000000
    24  H    3.112122   2.502627   3.065193   0.000000
    25  H    3.753524   2.473152   2.473145   1.771990   0.000000
    26  H    2.559912   3.065194   2.502621   1.774724   1.771990
                   26
    26  H    0.000000
 Stoichiometry    C8H18
 Framework group  C1[X(C8H18)]
 Deg. of freedom    72
 Full point group                 C1      NOp   1
 Largest Abelian subgroup         C1      NOp   1
 Largest concise Abelian subgroup C1      NOp   1
                         Standard orientation:                         
 ---------------------------------------------------------------------
 Center     Atomic      Atomic             Coordinates (Angstroms)
 Number     Number       Type             X           Y           Z
 ---------------------------------------------------------------------
      1          6           0       -4.427363    0.258437   -0.000017
      2          6           0       -3.138512   -0.548020    0.000000
      3          6           0       -1.909373    0.360520    0.000007
      4          6           0       -0.615064   -0.454565    0.000010
      5          6           0        0.615068    0.454563    0.000010
      6          6           0        1.909366   -0.360516    0.000007
      7          6           0        3.138510    0.548019   -0.000001
      8          6           0        4.427368   -0.258440   -0.000013
      9          1           0       -4.491042    0.896305    0.887345
     10          1           0       -5.293303   -0.410940   -0.000012
     11          1           0       -4.491027    0.896296   -0.887382
     12          1           0       -3.121215   -1.198135    0.882475
     13          1           0       -3.121198   -1.198150   -0.882463
     14          1           0       -1.933723    1.011519    0.882439
     15          1           0       -1.933713    1.011519   -0.882424
     16          1           0       -0.590828   -1.105374   -0.882520
     17          1           0       -0.590831   -1.105366    0.882548
     18          1           0        0.590837    1.105374    0.882548
     19          1           0        0.590830    1.105383   -0.882517
     20          1           0        1.933716   -1.011514   -0.882425
     21          1           0        1.933718   -1.011518    0.882430
     22          1           0        3.121197    1.198146   -0.882467
     23          1           0        3.121219    1.198136    0.882474
     24          1           0        4.491020   -0.896300   -0.887382
     25          1           0        5.293308    0.410937   -0.000019
     26          1           0        4.491031   -0.896309    0.887342
 ---------------------------------------------------------------------
 Rotational constants (GHZ):     10.5519990      0.5005955      0.4895828
 Standard basis: STO-3G (5D, 7F)
 There are    58 symmetry adapted cartesian basis functions of A   symmetry.
 There are    58 symmetry adapted basis functions of A   symmetry.
    58 basis functions,   174 primitive gaussians,    58 cartesian basis functions
    33 alpha electrons       33 beta electrons
       nuclear repulsion energy       376.5416326580 Hartrees.
 NAtoms=   26 NActive=   26 NUniq=   26 SFac= 1.00D+00 NAtFMM=   60 NAOKFM=F Big=F
 Integral buffers will be    131072 words long.
 Raffenetti 2 integral format.
 Two-electron integral symmetry is turned on.
 One-electron integrals computed using PRISM.
 NBasis=    58 RedAO= T EigKep=  1.98D-01  NBF=    58
 NBsUse=    58 1.00D-06 EigRej= -1.00D+00 NBFU=    58
 ExpMin= 1.69D-01 ExpMax= 7.16D+01 ExpMxC= 7.16D+01 IAcc=1 IRadAn=         1 AccDes= 0.00D+00
 Harris functional with IExCor=  402 and IRadAn=       1 diagonalized for initial guess.
 HarFok:  IExCor=  402 AccDes= 0.00D+00 IRadAn=         1 IDoV= 1 UseB2=F ITyADJ=14
 ICtDFT=  3500011 ScaDFX=  1.000000  1.000000  1.000000  1.000000
 FoFCou: FMM=F IPFlag=           0 FMFlag=      100000 FMFlg1=           0
         NFxFlg=           0 DoJE=T BraDBF=F KetDBF=T FulRan=T
         wScrn=  0.000000 ICntrl=     500 IOpCl=  0 I1Cent=   200000004 NGrid=           0
         NMat0=    1 NMatS0=      1 NMatT0=    0 NMatD0=    1 NMtDS0=    0 NMtDT0=    0
 Petite list used in FoFCou.
 Keep R1 ints in memory in canonical form, NReq=2373060.
 Requested convergence on RMS density matrix=1.00D-08 within 128 cycles.
 Requested convergence on MAX density matrix=1.00D-06.
 Requested convergence on             energy=1.00D-06.
 No special actions if energy rises.
 Integral accuracy reduced to 1.0D-05 until final iterations.
 Initial convergence to 1.0D-05 achieved.  Increase integral accuracy.
 SCF Done:  E(RB3LYP) =  -311.968716819     A.U. after   10 cycles
            NFock= 10  Conv=0.58D-08     -V/T= 2.0171

 **********************************************************************

            Population analysis using the SCF density.

 **********************************************************************

 Orbital symmetries:
       Occupied  (A) (A) (A) (A) (A) (A) (A) (A) (A) (A) (A) (A)
                 (A) (A) (A) (A) (A) (A) (A) (A) (A) (A) (A) (A)
                 (A) (A) (A) (A) (A) (A) (A) (A) (A)
       Virtual   (A) (A) (A) (A) (A) (A) (A) (A) (A) (A) (A) (A)
                 (A) (A) (A) (A) (A) (A) (A) (A) (A) (A) (A) (A)
                 (A)
 The electronic state is 1-A.
 Alpha  occ. eigenvalues --  -10.00585 -10.00585 -10.00304 -10.00279 -10.00213
 Alpha  occ. eigenvalues --  -10.00136  -9.99768  -9.99768  -0.77437  -0.75130
 Alpha  occ. eigenvalues --   -0.71288  -0.66208  -0.60454  -0.55552  -0.54437
 Alpha  occ. eigenvalues --   -0.53831  -0.45217  -0.43078  -0.40028  -0.39741
 Alpha  occ. eigenvalues --   -0.38299  -0.37071  -0.35819  -0.34807  -0.32201
 Alpha  occ. eigenvalues --   -0.31516  -0.30757  -0.29709  -0.29355  -0.28569
 Alpha  occ. eigenvalues --   -0.28430  -0.28350  -0.24740
 Alpha virt. eigenvalues --    0.34240   0.35806   0.38281   0.39950   0.40093
 Alpha virt. eigenvalues --    0.40981   0.41762   0.42571   0.45465   0.45639
 Alpha virt. eigenvalues --    0.46710   0.48375   0.48639   0.48934   0.50340
 Alpha virt. eigenvalues --    0.50740   0.51527   0.51878   0.52189   0.53360
 Alpha virt. eigenvalues --    0.53590   0.53690   0.53910   0.55143   0.57269
          Condensed to atoms (all electrons):
               1          2          3          4          5          6
     1  C    4.785131   0.366353  -0.023836   0.000837  -0.000006   0.000000
     2  C    0.366353   4.770879   0.365625  -0.022869   0.000812  -0.000006
     3  C   -0.023836   0.365625   4.783615   0.364776  -0.022750   0.000809
     4  C    0.000837  -0.022869   0.364776   4.784492   0.364782  -0.022750
     5  C   -0.000006   0.000812  -0.022750   0.364782   4.784489   0.364779
     6  C    0.000000  -0.000006   0.000809  -0.022750   0.364779   4.783614
     7  C    0.000000   0.000000  -0.000006   0.000812  -0.022870   0.365625
     8  C    0.000000   0.000000   0.000000  -0.000006   0.000837  -0.023836
     9  H    0.381489  -0.020788  -0.002477   0.000011   0.000000   0.000000
    10  H    0.380984  -0.020312   0.001443  -0.000020   0.000000   0.000000
    11  H    0.381491  -0.020788  -0.002476   0.000011   0.000000   0.000000
    12  H   -0.022675   0.381096  -0.022112  -0.002433   0.000010   0.000000
    13  H   -0.022675   0.381097  -0.022112  -0.002433   0.000010   0.000000
    14  H   -0.002431  -0.022213   0.380446  -0.022147  -0.002460   0.000010
    15  H   -0.002431  -0.022213   0.380446  -0.022147  -0.002461   0.000010
    16  H    0.000010  -0.002460  -0.022178   0.380454  -0.022172  -0.002462
    17  H    0.000010  -0.002460  -0.022178   0.380454  -0.022172  -0.002461
    18  H    0.000000   0.000010  -0.002461  -0.022171   0.380452  -0.022178
    19  H    0.000000   0.000010  -0.002462  -0.022172   0.380453  -0.022178
    20  H    0.000000   0.000000   0.000010  -0.002461  -0.022147   0.380445
    21  H    0.000000   0.000000   0.000010  -0.002461  -0.022147   0.380447
    22  H    0.000000   0.000000   0.000000   0.000010  -0.002433  -0.022112
    23  H    0.000000   0.000000   0.000000   0.000010  -0.002433  -0.022112
    24  H    0.000000   0.000000   0.000000   0.000000   0.000011  -0.002476
    25  H    0.000000   0.000000   0.000000   0.000000  -0.000020   0.001443
    26  H    0.000000   0.000000   0.000000   0.000000   0.000011  -0.002476
               7          8          9         10         11         12
     1  C    0.000000   0.000000   0.381489   0.380984   0.381491  -0.022675
     2  C    0.000000   0.000000  -0.020788  -0.020312  -0.020788   0.381096
     3  C   -0.000006   0.000000  -0.002477   0.001443  -0.002476  -0.022112
     4  C    0.000812  -0.000006   0.000011  -0.000020   0.000011  -0.002433
     5  C   -0.022870   0.000837   0.000000   0.000000   0.000000   0.000010
     6  C    0.365625  -0.023836   0.000000   0.000000   0.000000   0.000000
     7  C    4.770881   0.366351   0.000000   0.000000   0.000000   0.000000
     8  C    0.366351   4.785131   0.000000   0.000000   0.000000   0.000000
     9  H    0.000000   0.000000   0.612774  -0.021122  -0.021307  -0.002559
    10  H    0.000000   0.000000  -0.021122   0.613239  -0.021121  -0.002483
    11  H    0.000000   0.000000  -0.021307  -0.021121   0.612771   0.002066
    12  H    0.000000   0.000000  -0.002559  -0.002483   0.002066   0.623531
    13  H    0.000000   0.000000   0.002066  -0.002483  -0.002559  -0.023106
    14  H    0.000000   0.000000   0.000591   0.000013  -0.000028  -0.002499
    15  H    0.000000   0.000000  -0.000028   0.000013   0.000591   0.002016
    16  H    0.000010   0.000000  -0.000001   0.000000   0.000002  -0.000014
    17  H    0.000010   0.000000   0.000002   0.000000  -0.000001   0.000566
    18  H   -0.002460   0.000010   0.000000   0.000000   0.000000   0.000002
    19  H   -0.002460   0.000010   0.000000   0.000000   0.000000  -0.000001
    20  H   -0.022213  -0.002431   0.000000   0.000000   0.000000   0.000000
    21  H   -0.022212  -0.002431   0.000000   0.000000   0.000000   0.000000
    22  H    0.381097  -0.022675   0.000000   0.000000   0.000000   0.000000
    23  H    0.381096  -0.022675   0.000000   0.000000   0.000000   0.000000
    24  H   -0.020789   0.381490   0.000000   0.000000   0.000000   0.000000
    25  H   -0.020312   0.380985   0.000000   0.000000   0.000000   0.000000
    26  H   -0.020789   0.381491   0.000000   0.000000   0.000000   0.000000
              13         14         15         16         17         18
     1  C   -0.022675  -0.002431  -0.002431   0.000010   0.000010   0.000000
     2  C    0.381097  -0.022213  -0.022213  -0.002460  -0.002460   0.000010
     3  C   -0.022112   0.380446   0.380446  -0.022178  -0.022178  -0.002461
     4  C   -0.002433  -0.022147  -0.022147   0.380454   0.380454  -0.022171
     5  C    0.000010  -0.002460  -0.002461  -0.022172  -0.022172   0.380452
     6  C    0.000000   0.000010   0.000010  -0.002462  -0.002461  -0.022178
     7  C    0.000000   0.000000   0.000000   0.000010   0.000010  -0.002460
     8  C    0.000000   0.000000   0.000000   0.000000   0.000000   0.000010
     9  H    0.002066   0.000591  -0.000028  -0.000001   0.000002   0.000000
    10  H   -0.002483   0.000013   0.000013   0.000000   0.000000   0.000000
    11  H   -0.002559  -0.000028   0.000591   0.000002  -0.000001   0.000000
    12  H   -0.023106  -0.002499   0.002016  -0.000014   0.000566   0.000002
    13  H    0.623530   0.002016  -0.002499   0.000566  -0.000014  -0.000001
    14  H    0.002016   0.625026  -0.023317   0.002016  -0.002507   0.000568
    15  H   -0.002499  -0.023317   0.625027  -0.002507   0.002016  -0.000014
    16  H    0.000566   0.002016  -0.002507   0.625441  -0.023342   0.002017
    17  H   -0.000014  -0.002507   0.002016  -0.023342   0.625443  -0.002508
    18  H   -0.000001   0.000568  -0.000014   0.002017  -0.002508   0.625445
    19  H    0.000002  -0.000014   0.000568  -0.002508   0.002017  -0.023342
    20  H    0.000000  -0.000001   0.000002   0.000568  -0.000014   0.002016
    21  H    0.000000   0.000002  -0.000001  -0.000014   0.000568  -0.002507
    22  H    0.000000   0.000000   0.000000   0.000002  -0.000001  -0.000014
    23  H    0.000000   0.000000   0.000000  -0.000001   0.000002   0.000566
    24  H    0.000000   0.000000   0.000000   0.000000   0.000000  -0.000001
    25  H    0.000000   0.000000   0.000000   0.000000   0.000000   0.000000
    26  H    0.000000   0.000000   0.000000   0.000000   0.000000   0.000002
              19         20         21         22         23         24
     1  C    0.000000   0.000000   0.000000   0.000000   0.000000   0.000000
     2  C    0.000010   0.000000   0.000000   0.000000   0.000000   0.000000
     3  C   -0.002462   0.000010   0.000010   0.000000   0.000000   0.000000
     4  C   -0.022172  -0.002461  -0.002461   0.000010   0.000010   0.000000
     5  C    0.380453  -0.022147  -0.022147  -0.002433  -0.002433   0.000011
     6  C   -0.022178   0.380445   0.380447  -0.022112  -0.022112  -0.002476
     7  C   -0.002460  -0.022213  -0.022212   0.381097   0.381096  -0.020789
     8  C    0.000010  -0.002431  -0.002431  -0.022675  -0.022675   0.381490
     9  H    0.000000   0.000000   0.000000   0.000000   0.000000   0.000000
    10  H    0.000000   0.000000   0.000000   0.000000   0.000000   0.000000
    11  H    0.000000   0.000000   0.000000   0.000000   0.000000   0.000000
    12  H   -0.000001   0.000000   0.000000   0.000000   0.000000   0.000000
    13  H    0.000002   0.000000   0.000000   0.000000   0.000000   0.000000
    14  H   -0.000014  -0.000001   0.000002   0.000000   0.000000   0.000000
    15  H    0.000568   0.000002  -0.000001   0.000000   0.000000   0.000000
    16  H   -0.002508   0.000568  -0.000014   0.000002  -0.000001   0.000000
    17  H    0.002017  -0.000014   0.000568  -0.000001   0.000002   0.000000
    18  H   -0.023342   0.002016  -0.002507  -0.000014   0.000566  -0.000001
    19  H    0.625444  -0.002507   0.002016   0.000566  -0.000014   0.000002
    20  H   -0.002507   0.625028  -0.023317  -0.002499   0.002016   0.000591
    21  H    0.002016  -0.023317   0.625025   0.002016  -0.002499  -0.000028
    22  H    0.000566  -0.002499   0.002016   0.623530  -0.023106  -0.002559
    23  H   -0.000014   0.002016  -0.002499  -0.023106   0.623532   0.002066
    24  H    0.000002   0.000591  -0.000028  -0.002559   0.002066   0.612773
    25  H    0.000000   0.000013   0.000013  -0.002483  -0.002483  -0.021121
    26  H   -0.000001  -0.000028   0.000591   0.002066  -0.002559  -0.021307
              25         26
     1  C    0.000000   0.000000
     2  C    0.000000   0.000000
     3  C    0.000000   0.000000
     4  C    0.000000   0.000000
     5  C   -0.000020   0.000011
     6  C    0.001443  -0.002476
     7  C   -0.020312  -0.020789
     8  C    0.380985   0.381491
     9  H    0.000000   0.000000
    10  H    0.000000   0.000000
    11  H    0.000000   0.000000
    12  H    0.000000   0.000000
    13  H    0.000000   0.000000
    14  H    0.000000   0.000000
    15  H    0.000000   0.000000
    16  H    0.000000   0.000000
    17  H    0.000000   0.000000
    18  H    0.000000   0.000002
    19  H    0.000000  -0.000001
    20  H    0.000013  -0.000028
    21  H    0.000013   0.000591
    22  H   -0.002483   0.002066
    23  H   -0.002483  -0.002559
    24  H   -0.021121  -0.021307
    25  H    0.613237  -0.021121
    26  H   -0.021121   0.612771
 Mulliken charges:
               1
     1  C   -0.222249
     2  C   -0.131771
     3  C   -0.132133
     4  C   -0.132578
     5  C   -0.132576
     6  C   -0.132135
     7  C   -0.131770
     8  C   -0.222250
     9  H    0.071347
    10  H    0.071848
    11  H    0.071348
    12  H    0.068595
    13  H    0.068595
    14  H    0.066928
    15  H    0.066928
    16  H    0.066571
    17  H    0.066571
    18  H    0.066570
    19  H    0.066570
    20  H    0.066928
    21  H    0.066929
    22  H    0.068594
    23  H    0.068594
    24  H    0.071348
    25  H    0.071849
    26  H    0.071349
 Sum of Mulliken charges =   0.00000
 Mulliken charges with hydrogens summed into heavy atoms:
               1
     1  C   -0.007705
     2  C    0.005419
     3  C    0.001723
     4  C    0.000564
     5  C    0.000564
     6  C    0.001722
     7  C    0.005418
     8  C   -0.007705
 Electronic spatial extent (au):  <R**2>=           2374.8867
 Charge=              0.0000 electrons
 Dipole moment (field-independent basis, Debye):
    X=              0.0000    Y=              0.0000    Z=              0.0000  Tot=              0.0000
 Quadrupole moment (field-independent basis, Debye-Ang):
   XX=            -52.6423   YY=            -51.1555   ZZ=            -50.2729
   XY=              0.3016   XZ=              0.0000   YZ=              0.0000
 Traceless Quadrupole moment (field-independent basis, Debye-Ang):
   XX=             -1.2854   YY=              0.2014   ZZ=              1.0840
   XY=              0.3016   XZ=              0.0000   YZ=              0.0000
 Octapole moment (field-independent basis, Debye-Ang**2):
  XXX=             -0.0002  YYY=              0.0000  ZZZ=              0.0000  XYY=              0.0000
  XXY=              0.0001  XXZ=              0.0002  XZZ=             -0.0001  YZZ=              0.0000
  YYZ=              0.0000  XYZ=              0.0000
 Hexadecapole moment (field-independent basis, Debye-Ang**3):
 XXXX=          -2860.6474 YYYY=           -167.2596 ZZZZ=            -95.1556 XXXY=             21.9254
 XXXZ=             -0.0007 YYYX=              0.4695 YYYZ=              0.0000 ZZZX=             -0.0001
 ZZZY=              0.0000 XXYY=           -494.2216 XXZZ=           -479.3987 YYZZ=            -37.9714
 XXYZ=             -0.0001 YYXZ=              0.0000 ZZXY=             -3.1055
 N-N= 3.765416326580D+02 E-N=-1.472683734574D+03  KE= 3.067112732070D+02
 Calling FoFJK, ICntrl=      2127 FMM=F ISym2X=0 I1Cent= 0 IOpClX= 0 NMat=1 NMatS=1 NMatT=0.
 ***** Axes restored to original set *****
 -------------------------------------------------------------------
 Center     Atomic                   Forces (Hartrees/Bohr)
 Number     Number              X              Y              Z
 -------------------------------------------------------------------
      1        6          -0.008410448    0.014111973   -0.009160672
      2        6          -0.006444743   -0.007781980   -0.002919557
      3        6           0.003676368    0.005849035    0.001353970
      4        6          -0.003275618   -0.006040401   -0.001021377
      5        6           0.003273983    0.006053429    0.001023772
      6        6          -0.003669201   -0.005857550   -0.001352830
      7        6           0.006444756    0.007781132    0.002924068
      8        6           0.008407044   -0.014106595    0.009155891
      9        1          -0.000618983    0.003473259    0.003150227
     10        1          -0.004305736    0.001110968   -0.003344809
     11        1           0.003390092    0.002245434   -0.002421555
     12        1          -0.003570238   -0.003272937    0.003715025
     13        1           0.001540192   -0.004839899   -0.003386442
     14        1          -0.000903728    0.003623027    0.003836516
     15        1           0.003952904    0.002134435   -0.002912822
     16        1           0.000788472   -0.003597250   -0.003899138
     17        1          -0.004042963   -0.002115430    0.002815737
     18        1          -0.000788756    0.003593405    0.003895012
     19        1           0.004041874    0.002113441   -0.002816108
     20        1           0.000903349   -0.003622823   -0.003837231
     21        1          -0.003955351   -0.002134757    0.002914752
     22        1           0.003570352    0.003272936   -0.003714926
     23        1          -0.001539633    0.004839690    0.003385078
     24        1           0.000620693   -0.003474326   -0.003149761
     25        1           0.004305774   -0.001111620    0.003344023
     26        1          -0.003390455   -0.002246596    0.002423159
 -------------------------------------------------------------------
 Cartesian Forces:  Max     0.014111973 RMS     0.004605669

 GradGradGradGradGradGradGradGradGradGradGradGradGradGradGradGradGradGrad
 Berny optimization.
 FormGI is forming the generalized inverse of G from B-inverse, IUseBI=4.
 GSVD:  received Info=                   1 from GESDD.
 Internal  Forces:  Max     0.025738289 RMS     0.005957630
 Search for a local minimum.
 Step number   1 out of a maximum of  146
 All quantities printed in internal units (Hartrees-Bohrs-Radians)
 Mixed Optimization -- RFO/linear search
 Second derivative matrix not updated -- first step.
 ITU=  0
     Eigenvalues ---    0.00374   0.00375   0.00375   0.00389   0.00389
     Eigenvalues ---    0.00496   0.00497   0.03678   0.03679   0.03684
     Eigenvalues ---    0.03684   0.03721   0.03721   0.04883   0.04884
     Eigenvalues ---    0.04888   0.04888   0.04928   0.04928   0.05607
     Eigenvalues ---    0.05607   0.05703   0.05703   0.08108   0.08108
     Eigenvalues ---    0.08112   0.08112   0.08168   0.08168   0.12034
     Eigenvalues ---    0.12034   0.12036   0.12036   0.12068   0.12068
     Eigenvalues ---    0.16000   0.16000   0.16000   0.16000   0.16000
     Eigenvalues ---    0.16000   0.21898   0.21898   0.21899   0.21899
     Eigenvalues ---    0.21906   0.21906   0.29459   0.29463   0.29464
     Eigenvalues ---    0.29565   0.29565   0.30331   0.30331   0.34033
     Eigenvalues ---    0.34033   0.34033   0.34033   0.34036   0.34037
     Eigenvalues ---    0.34037   0.34037   0.34103   0.34103   0.34103
     Eigenvalues ---    0.34103   0.34276   0.34277   0.34277   0.34277
     Eigenvalues ---    0.34298   0.34298
 RFO step:  Lambda=-1.59633665D-02 EMin= 3.74131163D-03
 Linear search not attempted -- first point.
 Iteration  1 RMS(Cart)=  0.09198707 RMS(Int)=  0.00025818
 Iteration  2 RMS(Cart)=  0.00039774 RMS(Int)=  0.00006437
 Iteration  3 RMS(Cart)=  0.00000032 RMS(Int)=  0.00006437
 Variable       Old X    -DE/DX   Delta X   Delta X   Delta X     New X
                                 (Linear)    (Quad)   (Total)
    R1        2.87307   0.02574   0.00000   0.08061   0.08061   2.95369
    R2        2.06866   0.00470   0.00000   0.01310   0.01310   2.08176
    R3        2.06829   0.00528   0.00000   0.01471   0.01471   2.08301
    R4        2.06865   0.00470   0.00000   0.01310   0.01310   2.08176
    R5        2.88839   0.02275   0.00000   0.07302   0.07302   2.96141
    R6        2.07157   0.00592   0.00000   0.01658   0.01658   2.08814
    R7        2.07157   0.00592   0.00000   0.01658   0.01658   2.08814
    R8        2.89048   0.02256   0.00000   0.07263   0.07263   2.96311
    R9        2.07274   0.00535   0.00000   0.01502   0.01502   2.08776
   R10        2.07274   0.00535   0.00000   0.01502   0.01502   2.08776
   R11        2.89056   0.02251   0.00000   0.07249   0.07249   2.96305
   R12        2.07268   0.00536   0.00000   0.01504   0.01504   2.08772
   R13        2.07268   0.00536   0.00000   0.01504   0.01504   2.08772
   R14        2.89045   0.02257   0.00000   0.07266   0.07266   2.96311
   R15        2.07269   0.00535   0.00000   0.01503   0.01503   2.08772
   R16        2.07268   0.00536   0.00000   0.01503   0.01503   2.08772
   R17        2.88840   0.02275   0.00000   0.07302   0.07302   2.96141
   R18        2.07274   0.00535   0.00000   0.01502   0.01502   2.08776
   R19        2.07274   0.00535   0.00000   0.01503   0.01503   2.08776
   R20        2.87309   0.02573   0.00000   0.08060   0.08060   2.95369
   R21        2.07157   0.00592   0.00000   0.01658   0.01658   2.08814
   R22        2.07157   0.00592   0.00000   0.01657   0.01657   2.08814
   R23        2.06866   0.00470   0.00000   0.01310   0.01310   2.08176
   R24        2.06829   0.00528   0.00000   0.01471   0.01471   2.08301
   R25        2.06865   0.00470   0.00000   0.01311   0.01311   2.08176
    A1        1.93734  -0.00011   0.00000  -0.00176  -0.00178   1.93555
    A2        1.92441   0.00261   0.00000   0.01701   0.01698   1.94140
    A3        1.93734  -0.00011   0.00000  -0.00176  -0.00178   1.93556
    A4        1.88635  -0.00097   0.00000  -0.00343  -0.00345   1.88289
    A5        1.89039  -0.00053   0.00000  -0.00712  -0.00714   1.88325
    A6        1.88636  -0.00098   0.00000  -0.00344  -0.00346   1.88290
    A7        1.94594   0.00594   0.00000   0.02827   0.02826   1.97420
    A8        1.90494  -0.00090   0.00000   0.00280   0.00289   1.90783
    A9        1.90494  -0.00090   0.00000   0.00280   0.00289   1.90783
   A10        1.91752  -0.00248   0.00000  -0.01402  -0.01422   1.90330
   A11        1.91753  -0.00248   0.00000  -0.01402  -0.01422   1.90330
   A12        1.87137   0.00064   0.00000  -0.00704  -0.00723   1.86414
   A13        1.94306   0.00716   0.00000   0.03314   0.03313   1.97618
   A14        1.91234  -0.00217   0.00000  -0.00812  -0.00817   1.90417
   A15        1.91234  -0.00217   0.00000  -0.00812  -0.00817   1.90418
   A16        1.91246  -0.00206   0.00000  -0.00699  -0.00702   1.90545
   A17        1.91246  -0.00206   0.00000  -0.00699  -0.00701   1.90545
   A18        1.86972   0.00104   0.00000  -0.00444  -0.00456   1.86516
   A19        1.94313   0.00707   0.00000   0.03284   0.03282   1.97596
   A20        1.91229  -0.00210   0.00000  -0.00757  -0.00761   1.90467
   A21        1.91228  -0.00210   0.00000  -0.00757  -0.00761   1.90467
   A22        1.91229  -0.00206   0.00000  -0.00721  -0.00725   1.90504
   A23        1.91229  -0.00206   0.00000  -0.00721  -0.00724   1.90504
   A24        1.87012   0.00100   0.00000  -0.00480  -0.00491   1.86521
   A25        1.94313   0.00707   0.00000   0.03284   0.03283   1.97596
   A26        1.91229  -0.00207   0.00000  -0.00722  -0.00725   1.90504
   A27        1.91229  -0.00206   0.00000  -0.00722  -0.00725   1.90504
   A28        1.91228  -0.00210   0.00000  -0.00757  -0.00761   1.90468
   A29        1.91229  -0.00210   0.00000  -0.00757  -0.00761   1.90468
   A30        1.87010   0.00100   0.00000  -0.00478  -0.00489   1.86521
   A31        1.94306   0.00716   0.00000   0.03314   0.03312   1.97618
   A32        1.91247  -0.00206   0.00000  -0.00699  -0.00702   1.90545
   A33        1.91247  -0.00206   0.00000  -0.00699  -0.00702   1.90545
   A34        1.91233  -0.00217   0.00000  -0.00811  -0.00816   1.90417
   A35        1.91234  -0.00217   0.00000  -0.00812  -0.00817   1.90417
   A36        1.86971   0.00104   0.00000  -0.00444  -0.00455   1.86516
   A37        1.94595   0.00593   0.00000   0.02826   0.02825   1.97420
   A38        1.91752  -0.00248   0.00000  -0.01402  -0.01422   1.90330
   A39        1.91753  -0.00248   0.00000  -0.01402  -0.01422   1.90330
   A40        1.90494  -0.00090   0.00000   0.00280   0.00289   1.90783
   A41        1.90493  -0.00090   0.00000   0.00281   0.00290   1.90783
   A42        1.87138   0.00064   0.00000  -0.00704  -0.00723   1.86415
   A43        1.93732  -0.00011   0.00000  -0.00175  -0.00177   1.93556
   A44        1.92442   0.00261   0.00000   0.01701   0.01698   1.94139
   A45        1.93733  -0.00011   0.00000  -0.00175  -0.00177   1.93555
   A46        1.88636  -0.00098   0.00000  -0.00344  -0.00346   1.88290
   A47        1.89038  -0.00053   0.00000  -0.00712  -0.00714   1.88325
   A48        1.88637  -0.00098   0.00000  -0.00344  -0.00347   1.88290
    D1       -1.05174   0.00041   0.00000   0.00569   0.00569  -1.04605
    D2        1.06979   0.00054   0.00000   0.00833   0.00839   1.07818
    D3        3.10990   0.00028   0.00000   0.00305   0.00299   3.11289
    D4       -3.14158   0.00000   0.00000  -0.00001  -0.00001  -3.14159
    D5       -1.02005   0.00013   0.00000   0.00264   0.00270  -1.01735
    D6        1.02006  -0.00013   0.00000  -0.00264  -0.00271   1.01736
    D7        1.05174  -0.00041   0.00000  -0.00568  -0.00569   1.04605
    D8       -3.10991  -0.00028   0.00000  -0.00304  -0.00298  -3.11289
    D9       -1.06980  -0.00053   0.00000  -0.00832  -0.00839  -1.07819
   D10       -3.14158   0.00000   0.00000   0.00000   0.00000  -3.14159
   D11        1.02331  -0.00063   0.00000  -0.00742  -0.00740   1.01591
   D12       -1.02330   0.00063   0.00000   0.00743   0.00741  -1.01590
   D13        1.02739  -0.00110   0.00000  -0.01268  -0.01257   1.01482
   D14       -1.09090  -0.00173   0.00000  -0.02011  -0.01997  -1.11087
   D15       -3.13751  -0.00046   0.00000  -0.00525  -0.00516   3.14051
   D16       -1.02736   0.00110   0.00000   0.01267   0.01256  -1.01480
   D17        3.13753   0.00046   0.00000   0.00525   0.00516  -3.14049
   D18        1.09092   0.00173   0.00000   0.02010   0.01997   1.11089
   D19        3.14159   0.00000   0.00000   0.00000   0.00000   3.14159
   D20        1.02351  -0.00062   0.00000  -0.00731  -0.00730   1.01621
   D21       -1.02352   0.00062   0.00000   0.00732   0.00731  -1.01622
   D22       -1.02338   0.00057   0.00000   0.00677   0.00676  -1.01662
   D23       -3.14146  -0.00005   0.00000  -0.00055  -0.00054   3.14118
   D24        1.09469   0.00119   0.00000   0.01409   0.01406   1.10876
   D25        1.02337  -0.00057   0.00000  -0.00677  -0.00676   1.01661
   D26       -1.09471  -0.00119   0.00000  -0.01408  -0.01406  -1.10877
   D27        3.14145   0.00005   0.00000   0.00055   0.00054  -3.14119
   D28       -3.14159   0.00000   0.00000   0.00000   0.00000  -3.14159
   D29        1.02352  -0.00060   0.00000  -0.00711  -0.00710   1.01643
   D30       -1.02350   0.00060   0.00000   0.00711   0.00709  -1.01641
   D31       -1.02351   0.00060   0.00000   0.00711   0.00710  -1.01641
   D32       -3.14159   0.00000   0.00000   0.00000   0.00000  -3.14159
   D33        1.09458   0.00119   0.00000   0.01421   0.01419   1.10876
   D34        1.02353  -0.00060   0.00000  -0.00711  -0.00710   1.01643
   D35       -1.09455  -0.00120   0.00000  -0.01422  -0.01420  -1.10875
   D36       -3.14157   0.00000   0.00000  -0.00001  -0.00001  -3.14158
   D37        3.14159   0.00000   0.00000   0.00000   0.00000   3.14159
   D38        1.02338  -0.00057   0.00000  -0.00677  -0.00676   1.01662
   D39       -1.02337   0.00057   0.00000   0.00676   0.00676  -1.01662
   D40       -1.02352   0.00062   0.00000   0.00732   0.00730  -1.01621
   D41        3.14146   0.00005   0.00000   0.00054   0.00054  -3.14119
   D42        1.09471   0.00119   0.00000   0.01408   0.01405   1.10876
   D43        1.02350  -0.00062   0.00000  -0.00731  -0.00729   1.01621
   D44       -1.09471  -0.00119   0.00000  -0.01408  -0.01406  -1.10877
   D45       -3.14146  -0.00005   0.00000  -0.00055  -0.00054   3.14119
   D46       -3.14159   0.00000   0.00000   0.00000   0.00000  -3.14159
   D47       -1.02737   0.00110   0.00000   0.01267   0.01256  -1.01481
   D48        1.02739  -0.00110   0.00000  -0.01268  -0.01257   1.01482
   D49       -1.02330   0.00063   0.00000   0.00742   0.00740  -1.01589
   D50        1.09092   0.00173   0.00000   0.02010   0.01996   1.11089
   D51       -3.13751  -0.00046   0.00000  -0.00526  -0.00517   3.14051
   D52        1.02330  -0.00063   0.00000  -0.00742  -0.00740   1.01591
   D53        3.13752   0.00046   0.00000   0.00526   0.00516  -3.14050
   D54       -1.09091  -0.00173   0.00000  -0.02010  -0.01997  -1.11088
   D55        1.05174  -0.00041   0.00000  -0.00568  -0.00568   1.04605
   D56       -3.14159   0.00000   0.00000   0.00000   0.00000  -3.14159
   D57       -1.05173   0.00041   0.00000   0.00567   0.00568  -1.04605
   D58       -1.06980  -0.00053   0.00000  -0.00832  -0.00838  -1.07818
   D59        1.02005  -0.00013   0.00000  -0.00264  -0.00270   1.01736
   D60        3.10992   0.00028   0.00000   0.00304   0.00298   3.11290
   D61       -3.10991  -0.00028   0.00000  -0.00304  -0.00298  -3.11289
   D62       -1.02006   0.00013   0.00000   0.00264   0.00271  -1.01735
   D63        1.06981   0.00053   0.00000   0.00832   0.00838   1.07819
         Item               Value     Threshold  Converged?
 Maximum Force            0.025738     0.000015     NO 
 RMS     Force            0.005958     0.000010     NO 
 Maximum Displacement     0.203831     0.000060     NO 
 RMS     Displacement     0.092313     0.000040     NO 
 Predicted change in Energy=-8.433260D-03
 GradGradGradGradGradGradGradGradGradGradGradGradGradGradGradGradGradGrad

                          Input orientation:                          
 ---------------------------------------------------------------------
 Center     Atomic      Atomic             Coordinates (Angstroms)
 Number     Number       Type             X           Y           Z
 ---------------------------------------------------------------------
      1          6           0        0.350318   -1.407743   -2.285412
      2          6           0        0.794640   -2.771704   -1.664739
      3          6           0        2.075334   -2.652109   -0.769551
      4          6           0        2.523460   -4.019007   -0.145506
      5          6           0        3.804878   -3.899000    0.750105
      6          6           0        4.253012   -5.265897    1.374142
      7          6           0        5.533711   -5.146304    2.269323
      8          6           0        5.978047   -6.510272    2.889971
      9          1           0        0.122099   -0.672988   -1.496988
     10          1           0       -0.551453   -1.527300   -2.907936
     11          1           0        1.146264   -0.987014   -2.920251
     12          1           0       -0.032084   -3.183822   -1.058352
     13          1           0        0.988034   -3.496610   -2.475990
     14          1           0        1.882476   -1.928327    0.042557
     15          1           0        2.902796   -2.241161   -1.375360
     16          1           0        2.715700   -4.742305   -0.958160
     17          1           0        1.695390   -4.429467    0.459758
     18          1           0        3.612635   -3.175705    1.562761
     19          1           0        4.632946   -3.488527    0.144844
     20          1           0        4.445868   -5.989679    0.562032
     21          1           0        3.425556   -5.676853    1.979955
     22          1           0        6.360427   -4.734169    1.662938
     23          1           0        5.340315   -4.421413    3.080588
     24          1           0        6.206268   -7.245013    2.101534
     25          1           0        6.879819   -6.390715    3.512493
     26          1           0        5.182106   -6.931017    3.524805
 ---------------------------------------------------------------------
                    Distance matrix (angstroms):
                    1          2          3          4          5
     1  C    0.000000
     2  C    1.563024   0.000000
     3  C    2.611888   1.567113   0.000000
     4  C    4.015027   2.617757   1.568011   0.000000
     5  C    5.230173   4.020423   2.618285   1.567977   0.000000
     6  C    6.596113   5.236043   4.021143   2.618285   1.568010
     7  C    7.847931   6.601089   5.236042   4.020425   2.617758
     8  C    9.191938   7.847929   6.596112   5.230172   4.015026
     9  H    1.101618   2.210217   2.874233   4.334614   5.386970
    10  H    1.102280   2.214959   3.569019   4.826460   6.163104
    11  H    1.101618   2.210218   2.874234   4.334611   5.386965
    12  H    2.192342   1.104997   2.192563   2.839300   4.301659
    13  H    2.192343   1.104997   2.192564   2.839293   4.301652
    14  H    2.835129   2.193065   1.104797   2.194805   2.842499
    15  H    2.835123   2.193066   1.104797   2.194806   2.842496
    16  H    4.298364   2.841302   2.194211   1.104773   2.194457
    17  H    4.298371   2.841306   2.194211   1.104773   2.194457
    18  H    5.345730   4.303611   2.842028   2.194455   1.104772
    19  H    5.345718   4.303606   2.842022   2.194457   1.104773
    20  H    6.773153   5.352134   4.304871   2.842501   2.194807
    21  H    6.773163   5.352141   4.304876   2.842502   2.194807
    22  H    7.923129   6.775152   5.349205   4.301656   2.839296
    23  H    7.923145   6.775163   5.349216   4.301661   2.839302
    24  H    9.360083   7.967498   6.811939   5.386964   4.334609
    25  H   10.053859   8.770997   7.442859   6.163101   4.826458
    26  H    9.360094   7.967504   6.811944   5.386965   4.334611
                    6          7          8          9         10
     6  C    0.000000
     7  C    1.567113   0.000000
     8  C    2.611886   1.563025   0.000000
     9  H    6.811949   7.967509   9.360097   0.000000
    10  H    7.442862   8.770999  10.053861   1.781655   0.000000
    11  H    6.811941   7.967500   9.360084   1.781348   1.781658
    12  H    5.349216   6.775163   7.923143   2.553520   2.536685
    13  H    5.349203   6.775150   7.923126   3.111452   2.536688
    14  H    4.304873   5.352138   6.773159   2.654243   3.845809
    15  H    4.304867   5.352130   6.773148   3.194720   3.845806
    16  H    2.842026   4.303609   5.345721   4.855558   4.981182
    17  H    2.842032   4.303614   5.345731   4.518322   4.981189
    18  H    2.194211   2.841307   4.298372   5.273471   6.328033
    19  H    2.194212   2.841305   4.298367   5.565125   6.328023
    20  H    1.104797   2.193064   2.835117   7.155540   7.544980
    21  H    1.104797   2.193065   2.835124   6.931135   7.544990
    22  H    2.192564   1.104997   2.192343   8.086721   8.885436
    23  H    2.192564   1.104997   2.192343   7.888896   8.885451
    24  H    2.874231   2.210218   1.101618   9.651838  10.171225
    25  H    3.569016   2.214957   1.102279  10.171238  10.958947
    26  H    2.874229   2.210218   1.101618   9.486043  10.171235
                   11         12         13         14         15
    11  H    0.000000
    12  H    3.111452   0.000000
    13  H    2.553523   1.774310   0.000000
    14  H    3.194732   2.540435   3.098809   0.000000
    15  H    2.654237   3.098810   2.540443   1.774657   0.000000
    16  H    4.518312   3.160573   2.615414   3.100673   2.542594
    17  H    4.855562   2.615426   3.160568   2.542589   3.100673
    18  H    5.565136   4.489351   4.827319   2.619240   3.163827
    19  H    5.273454   4.827321   4.489345   3.163822   2.619230
    20  H    6.931113   5.527253   5.234652   4.830674   4.492877
    21  H    7.155541   5.234671   5.527243   4.492889   4.830673
    22  H    7.888870   7.118510   6.893828   5.527243   5.234649
    23  H    8.086731   6.893847   7.118508   5.234669   5.527248
    24  H    9.486016   8.086729   7.888866   7.155537   6.931108
    25  H   10.171225   8.885448   8.885431   7.544984   7.544973
    26  H    9.651836   7.888889   8.086713   6.931126   7.155531
                   16         17         18         19         20
    16  H    0.000000
    17  H    1.774653   0.000000
    18  H    3.100608   2.542511   0.000000
    19  H    2.542521   3.100609   1.774649   0.000000
    20  H    2.619238   3.163835   3.100675   2.542598   0.000000
    21  H    3.163826   2.619245   2.542595   3.100676   1.774656
    22  H    4.489349   4.827324   3.160570   2.615420   2.540440
    23  H    4.827325   4.489353   2.615429   3.160576   3.098809
    24  H    5.273456   5.565137   4.855561   4.518314   2.654230
    25  H    6.328024   6.328032   4.981188   4.981184   3.845799
    26  H    5.565123   5.273467   4.518321   4.855559   3.194713
                   21         22         23         24         25
    21  H    0.000000
    22  H    3.098810   0.000000
    23  H    2.540438   1.774310   0.000000
    24  H    3.194725   2.553521   3.111452   0.000000
    25  H    3.845803   2.536685   2.536683   1.781657   0.000000
    26  H    2.654234   3.111452   2.553521   1.781349   1.781659
                   26
    26  H    0.000000
 Stoichiometry    C8H18
 Framework group  C1[X(C8H18)]
 Deg. of freedom    72
 Full point group                 C1      NOp   1
 Largest Abelian subgroup         C1      NOp   1
 Largest concise Abelian subgroup C1      NOp   1
                         Standard orientation:                         
 ---------------------------------------------------------------------
 Center     Atomic      Atomic             Coordinates (Angstroms)
 Number     Number       Type             X           Y           Z
 ---------------------------------------------------------------------
      1          6           0       -4.588546    0.261117   -0.000015
      2          6           0       -3.253973   -0.552493    0.000001
      3          6           0       -1.978453    0.357941    0.000006
      4          6           0       -0.638009   -0.455613    0.000010
      5          6           0        0.638009    0.455612    0.000010
      6          6           0        1.978454   -0.357940    0.000004
      7          6           0        3.253974    0.552495    0.000001
      8          6           0        4.588545   -0.261119   -0.000014
      9          1           0       -4.655706    0.905910    0.890655
     10          1           0       -5.464238   -0.408349   -0.000016
     11          1           0       -4.655693    0.905901   -0.890693
     12          1           0       -3.227297   -1.210714    0.887160
     13          1           0       -3.227282   -1.210726   -0.887150
     14          1           0       -2.003735    1.015651    0.887335
     15          1           0       -2.003728    1.015654   -0.887322
     16          1           0       -0.613683   -1.113327   -0.887314
     17          1           0       -0.613685   -1.113320    0.887339
     18          1           0        0.613683    1.113320    0.887337
     19          1           0        0.613679    1.113329   -0.887312
     20          1           0        2.003733   -1.015651   -0.887326
     21          1           0        2.003739   -1.015655    0.887330
     22          1           0        3.227285    1.210727   -0.887150
     23          1           0        3.227298    1.210716    0.887160
     24          1           0        4.655691   -0.905901   -0.890693
     25          1           0        5.464236    0.408348   -0.000015
     26          1           0        4.655701   -0.905915    0.890656
 ---------------------------------------------------------------------
 Rotational constants (GHZ):     10.4325333      0.4665936      0.4568896
 Standard basis: STO-3G (5D, 7F)
 There are    58 symmetry adapted cartesian basis functions of A   symmetry.
 There are    58 symmetry adapted basis functions of A   symmetry.
    58 basis functions,   174 primitive gaussians,    58 cartesian basis functions
    33 alpha electrons       33 beta electrons
       nuclear repulsion energy       367.0091947651 Hartrees.
 NAtoms=   26 NActive=   26 NUniq=   26 SFac= 1.00D+00 NAtFMM=   60 NAOKFM=F Big=F
 Integral buffers will be    131072 words long.
 Raffenetti 2 integral format.
 Two-electron integral symmetry is turned on.
 One-electron integrals computed using PRISM.
 NBasis=    58 RedAO= T EigKep=  2.11D-01  NBF=    58
 NBsUse=    58 1.00D-06 EigRej= -1.00D+00 NBFU=    58
 Initial guess from the checkpoint file:  "/data/scratch/Gau-51404.chk"
 B after Tr=     0.000000    0.000000    0.000000
         Rot=    1.000000    0.000000    0.000000   -0.000058 Ang=  -0.01 deg.
 ExpMin= 1.69D-01 ExpMax= 7.16D+01 ExpMxC= 7.16D+01 IAcc=1 IRadAn=         1 AccDes= 0.00D+00
 Harris functional with IExCor=  402 and IRadAn=       1 diagonalized for initial guess.
 HarFok:  IExCor=  402 AccDes= 0.00D+00 IRadAn=         1 IDoV= 1 UseB2=F ITyADJ=14
 ICtDFT=  3500011 ScaDFX=  1.000000  1.000000  1.000000  1.000000
 FoFCou: FMM=F IPFlag=           0 FMFlag=      100000 FMFlg1=           0
         NFxFlg=           0 DoJE=T BraDBF=F KetDBF=T FulRan=T
         wScrn=  0.000000 ICntrl=     500 IOpCl=  0 I1Cent=   200000004 NGrid=           0
         NMat0=    1 NMatS0=      1 NMatT0=    0 NMatD0=    1 NMtDS0=    0 NMtDT0=    0
 Petite list used in FoFCou.
 Keep R1 ints in memory in canonical form, NReq=2373060.
 Requested convergence on RMS density matrix=1.00D-08 within 128 cycles.
 Requested convergence on MAX density matrix=1.00D-06.
 Requested convergence on             energy=1.00D-06.
 No special actions if energy rises.
 Integral accuracy reduced to 1.0D-05 until final iterations.
 Initial convergence to 1.0D-05 achieved.  Increase integral accuracy.
 SCF Done:  E(RB3LYP) =  -311.974308470     A.U. after    9 cycles
            NFock=  9  Conv=0.42D-08     -V/T= 2.0185
 Calling FoFJK, ICntrl=      2127 FMM=F ISym2X=0 I1Cent= 0 IOpClX= 0 NMat=1 NMatS=1 NMatT=0.
 ***** Axes restored to original set *****
 -------------------------------------------------------------------
 Center     Atomic                   Forces (Hartrees/Bohr)
 Number     Number              X              Y              Z
 -------------------------------------------------------------------
      1        6           0.001843295   -0.000338171    0.001401239
      2        6           0.000033560   -0.001118857    0.000270998
      3        6           0.001381070    0.001418770    0.000680709
      4        6          -0.000853241   -0.001515159   -0.000279895
      5        6           0.000853147    0.001515645    0.000279480
      6        6          -0.001381022   -0.001419655   -0.000680476
      7        6          -0.000033771    0.001118471   -0.000270946
      8        6          -0.001844161    0.000338746   -0.001401388
      9        1           0.000401905   -0.000855363    0.000341745
     10        1           0.000802935   -0.001837755    0.000982959
     11        1           0.000276464   -0.000817204    0.000515597
     12        1           0.000188491    0.000760844   -0.000083554
     13        1           0.000141357    0.000775411   -0.000018111
     14        1          -0.000198772   -0.000433141   -0.000021290
     15        1          -0.000174856   -0.000440707   -0.000054682
     16        1           0.000262379    0.000374786    0.000034227
     17        1           0.000196210    0.000394920    0.000125987
     18        1          -0.000262590   -0.000374789   -0.000033522
     19        1          -0.000196034   -0.000395548   -0.000126349
     20        1           0.000198677    0.000433741    0.000021174
     21        1           0.000174991    0.000441166    0.000054414
     22        1          -0.000188384   -0.000760888    0.000083507
     23        1          -0.000141369   -0.000775303    0.000018018
     24        1          -0.000401716    0.000855468   -0.000341630
     25        1          -0.000802492    0.001837334   -0.000982612
     26        1          -0.000276073    0.000817237   -0.000515601
 -------------------------------------------------------------------
 Cartesian Forces:  Max     0.001844161 RMS     0.000774884

 GradGradGradGradGradGradGradGradGradGradGradGradGradGradGradGradGradGrad
 Berny optimization.
 Using GEDIIS/GDIIS optimizer.
 FormGI is forming the generalized inverse of G from B-inverse, IUseBI=4.
 GSVD:  received Info=                   1 from GESDD.
 Internal  Forces:  Max     0.005590156 RMS     0.001620125
 Search for a local minimum.
 Step number   2 out of a maximum of  146
 All quantities printed in internal units (Hartrees-Bohrs-Radians)
 Mixed Optimization -- RFO/linear search
 Update second derivatives using D2CorX and points    1    2
 DE= -5.59D-03 DEPred=-8.43D-03 R= 6.63D-01
 TightC=F SS=  1.41D+00  RLast= 2.39D-01 DXNew= 5.0454D-01 7.1586D-01
 Trust test= 6.63D-01 RLast= 2.39D-01 DXMaxT set to 5.05D-01
 ITU=  1  0
 Use linear search instead of GDIIS.
     Eigenvalues ---    0.00374   0.00375   0.00375   0.00389   0.00389
     Eigenvalues ---    0.00496   0.00497   0.03501   0.03501   0.03506
     Eigenvalues ---    0.03506   0.03563   0.03563   0.04839   0.04842
     Eigenvalues ---    0.04845   0.04867   0.04889   0.04964   0.05590
     Eigenvalues ---    0.05590   0.05627   0.05636   0.08419   0.08420
     Eigenvalues ---    0.08425   0.08425   0.08439   0.08455   0.12265
     Eigenvalues ---    0.12265   0.12269   0.12269   0.12272   0.12272
     Eigenvalues ---    0.15989   0.16000   0.16000   0.16000   0.16000
     Eigenvalues ---    0.16075   0.21929   0.21929   0.21933   0.21933
     Eigenvalues ---    0.21933   0.22769   0.29460   0.29463   0.29512
     Eigenvalues ---    0.29565   0.30044   0.30331   0.33673   0.34033
     Eigenvalues ---    0.34033   0.34033   0.34035   0.34036   0.34037
     Eigenvalues ---    0.34037   0.34069   0.34103   0.34103   0.34103
     Eigenvalues ---    0.34212   0.34275   0.34276   0.34277   0.34277
     Eigenvalues ---    0.34298   0.37798
 RFO step:  Lambda=-2.80051310D-04 EMin= 3.74131163D-03
 Quartic linear search produced a step of -0.22244.
 Iteration  1 RMS(Cart)=  0.02613748 RMS(Int)=  0.00003072
 Iteration  2 RMS(Cart)=  0.00006836 RMS(Int)=  0.00001064
 Iteration  3 RMS(Cart)=  0.00000000 RMS(Int)=  0.00001064
 Variable       Old X    -DE/DX   Delta X   Delta X   Delta X     New X
                                 (Linear)    (Quad)   (Total)
    R1        2.95369  -0.00559  -0.01793   0.00462  -0.01331   2.94037
    R2        2.08176  -0.00041  -0.00291   0.00216  -0.00075   2.08100
    R3        2.08301  -0.00101  -0.00327   0.00117  -0.00210   2.08091
    R4        2.08176  -0.00041  -0.00291   0.00216  -0.00075   2.08100
    R5        2.96141  -0.00470  -0.01624   0.00478  -0.01146   2.94996
    R6        2.08814  -0.00047  -0.00369   0.00283  -0.00085   2.08729
    R7        2.08814  -0.00047  -0.00369   0.00283  -0.00085   2.08729
    R8        2.96311  -0.00545  -0.01616   0.00266  -0.01349   2.94962
    R9        2.08776  -0.00026  -0.00334   0.00294  -0.00041   2.08736
   R10        2.08776  -0.00026  -0.00334   0.00294  -0.00041   2.08736
   R11        2.96305  -0.00546  -0.01612   0.00260  -0.01352   2.94953
   R12        2.08772  -0.00022  -0.00335   0.00303  -0.00031   2.08740
   R13        2.08772  -0.00022  -0.00334   0.00303  -0.00031   2.08740
   R14        2.96311  -0.00545  -0.01616   0.00267  -0.01349   2.94962
   R15        2.08772  -0.00022  -0.00334   0.00303  -0.00031   2.08740
   R16        2.08772  -0.00022  -0.00334   0.00303  -0.00031   2.08740
   R17        2.96141  -0.00470  -0.01624   0.00478  -0.01146   2.94996
   R18        2.08776  -0.00026  -0.00334   0.00294  -0.00041   2.08736
   R19        2.08776  -0.00027  -0.00334   0.00294  -0.00041   2.08736
   R20        2.95369  -0.00559  -0.01793   0.00461  -0.01331   2.94037
   R21        2.08814  -0.00047  -0.00369   0.00283  -0.00085   2.08729
   R22        2.08814  -0.00047  -0.00369   0.00283  -0.00085   2.08729
   R23        2.08176  -0.00041  -0.00291   0.00216  -0.00075   2.08100
   R24        2.08301  -0.00101  -0.00327   0.00117  -0.00210   2.08091
   R25        2.08176  -0.00041  -0.00292   0.00216  -0.00075   2.08100
    A1        1.93555  -0.00063   0.00040  -0.00307  -0.00268   1.93287
    A2        1.94140  -0.00250  -0.00378  -0.00901  -0.01281   1.92859
    A3        1.93556  -0.00063   0.00040  -0.00307  -0.00268   1.93287
    A4        1.88289   0.00156   0.00077   0.00606   0.00681   1.88970
    A5        1.88325   0.00084   0.00159   0.00386   0.00546   1.88870
    A6        1.88290   0.00156   0.00077   0.00606   0.00680   1.88970
    A7        1.97420  -0.00328  -0.00629  -0.00742  -0.01373   1.96048
    A8        1.90783   0.00073  -0.00064   0.00080   0.00013   1.90796
    A9        1.90783   0.00073  -0.00064   0.00080   0.00013   1.90796
   A10        1.90330   0.00109   0.00316   0.00050   0.00368   1.90698
   A11        1.90330   0.00109   0.00316   0.00050   0.00368   1.90698
   A12        1.86414  -0.00019   0.00161   0.00558   0.00721   1.87135
   A13        1.97618  -0.00409  -0.00737  -0.00911  -0.01650   1.95969
   A14        1.90417   0.00121   0.00182   0.00137   0.00318   1.90735
   A15        1.90418   0.00121   0.00182   0.00137   0.00318   1.90735
   A16        1.90545   0.00113   0.00156   0.00093   0.00247   1.90792
   A17        1.90545   0.00113   0.00156   0.00093   0.00247   1.90792
   A18        1.86516  -0.00041   0.00101   0.00534   0.00636   1.87152
   A19        1.97596  -0.00414  -0.00730  -0.00939  -0.01670   1.95925
   A20        1.90467   0.00119   0.00169   0.00126   0.00294   1.90761
   A21        1.90467   0.00119   0.00169   0.00126   0.00294   1.90761
   A22        1.90504   0.00118   0.00161   0.00117   0.00277   1.90781
   A23        1.90504   0.00118   0.00161   0.00117   0.00277   1.90781
   A24        1.86521  -0.00041   0.00109   0.00538   0.00647   1.87168
   A25        1.97596  -0.00414  -0.00730  -0.00939  -0.01670   1.95925
   A26        1.90504   0.00118   0.00161   0.00117   0.00277   1.90781
   A27        1.90504   0.00118   0.00161   0.00117   0.00277   1.90781
   A28        1.90468   0.00119   0.00169   0.00125   0.00293   1.90761
   A29        1.90468   0.00119   0.00169   0.00125   0.00293   1.90761
   A30        1.86521  -0.00041   0.00109   0.00538   0.00647   1.87168
   A31        1.97618  -0.00409  -0.00737  -0.00911  -0.01650   1.95969
   A32        1.90545   0.00113   0.00156   0.00092   0.00247   1.90792
   A33        1.90545   0.00113   0.00156   0.00092   0.00247   1.90792
   A34        1.90417   0.00121   0.00182   0.00138   0.00318   1.90735
   A35        1.90417   0.00121   0.00182   0.00137   0.00318   1.90735
   A36        1.86516  -0.00041   0.00101   0.00535   0.00636   1.87152
   A37        1.97420  -0.00328  -0.00628  -0.00742  -0.01372   1.96048
   A38        1.90330   0.00109   0.00316   0.00050   0.00367   1.90698
   A39        1.90330   0.00109   0.00316   0.00050   0.00367   1.90698
   A40        1.90783   0.00073  -0.00064   0.00080   0.00013   1.90796
   A41        1.90783   0.00073  -0.00065   0.00080   0.00013   1.90796
   A42        1.86415  -0.00019   0.00161   0.00558   0.00721   1.87135
   A43        1.93556  -0.00063   0.00039  -0.00307  -0.00268   1.93287
   A44        1.94139  -0.00250  -0.00378  -0.00900  -0.01280   1.92859
   A45        1.93555  -0.00063   0.00039  -0.00307  -0.00268   1.93287
   A46        1.88290   0.00156   0.00077   0.00606   0.00680   1.88970
   A47        1.88325   0.00084   0.00159   0.00386   0.00546   1.88870
   A48        1.88290   0.00156   0.00077   0.00605   0.00680   1.88970
    D1       -1.04605  -0.00011  -0.00127  -0.00040  -0.00166  -1.04772
    D2        1.07818  -0.00041  -0.00187  -0.00421  -0.00607   1.07211
    D3        3.11289   0.00019  -0.00066   0.00340   0.00275   3.11564
    D4       -3.14159   0.00000   0.00000   0.00000   0.00000  -3.14159
    D5       -1.01735  -0.00030  -0.00060  -0.00380  -0.00441  -1.02176
    D6        1.01736   0.00030   0.00060   0.00380   0.00441   1.02176
    D7        1.04605   0.00011   0.00126   0.00040   0.00166   1.04772
    D8       -3.11289  -0.00019   0.00066  -0.00340  -0.00275  -3.11564
    D9       -1.07819   0.00041   0.00187   0.00421   0.00607  -1.07211
   D10       -3.14159   0.00000   0.00000   0.00000   0.00000  -3.14159
[...]
    22  H    2.188573   1.104085   2.185965   8.010790   8.811082
    23  H    2.188573   1.104085   2.185965   7.810453   8.811082
    24  H    2.846382   2.200611   1.100825   9.558899  10.077208
    25  H    3.543855   2.199797   1.100923  10.077208  10.867228
    26  H    2.846382   2.200611   1.100825   9.391054  10.077208
                   11         12         13         14         15
    11  H    0.000000
    12  H    3.103151   0.000000
    13  H    2.541646   1.777230   0.000000
    14  H    3.172285   2.534829   3.095850   0.000000
    15  H    2.625534   3.095850   2.534829   1.777444   0.000000
    16  H    4.480311   3.142378   2.591442   3.096819   2.535931
    17  H    4.821119   2.591442   3.142377   2.535931   3.096819
    18  H    5.514358   4.457238   4.798534   2.593502   3.144137
    19  H    5.219017   4.798534   4.457238   3.144137   2.593502
    20  H    6.866176   5.481111   5.184945   4.800310   4.459111
    21  H    7.093260   5.184945   5.481111   4.459111   4.800310
    22  H    7.810453   7.063490   6.836253   5.481111   5.184945
    23  H    8.010790   6.836253   7.063490   5.184945   5.481111
    24  H    9.391054   8.010791   7.810453   7.093260   6.866176
    25  H   10.077208   8.811082   8.811082   7.480056   7.480056
    26  H    9.558899   7.810453   8.010790   6.866176   7.093260
                   16         17         18         19         20
    16  H    0.000000
    17  H    1.777464   0.000000
    18  H    3.096790   2.535889   0.000000
    19  H    2.535889   3.096790   1.777464   0.000000
    20  H    2.593503   3.144137   3.096819   2.535931   0.000000
    21  H    3.144137   2.593502   2.535931   3.096819   1.777444
    22  H    4.457238   4.798534   3.142377   2.591442   2.534829
    23  H    4.798534   4.457238   2.591442   3.142378   3.095850
    24  H    5.219017   5.514358   4.821119   4.480311   2.625534
    25  H    6.278424   6.278424   4.942143   4.942143   3.823424
    26  H    5.514358   5.219017   4.480311   4.821119   3.172285
                   21         22         23         24         25
    21  H    0.000000
    22  H    3.095850   0.000000
    23  H    2.534829   1.777230   0.000000
    24  H    3.172285   2.541645   3.103151   0.000000
    25  H    3.823424   2.521825   2.521825   1.784510   0.000000
    26  H    2.625534   3.103151   2.541646   1.783440   1.784510
                   26
    26  H    0.000000
 Stoichiometry    C8H18
 Framework group  C1[X(C8H18)]
 Deg. of freedom    72
 Full point group                 C1      NOp   1
 Largest Abelian subgroup         C1      NOp   1
 Largest concise Abelian subgroup C1      NOp   1
                         Standard orientation:                         
 ---------------------------------------------------------------------
 Center     Atomic      Atomic             Coordinates (Angstroms)
 Number     Number       Type             X           Y           Z
 ---------------------------------------------------------------------
      1          6           0       -4.547180    0.262168    0.000000
      2          6           0       -3.222898   -0.554743    0.000000
      3          6           0       -1.959535    0.361791    0.000000
      4          6           0       -0.631616   -0.458321    0.000000
      5          6           0        0.631616    0.458321    0.000000
      6          6           0        1.959535   -0.361791    0.000000
      7          6           0        3.222898    0.554743    0.000000
      8          6           0        4.547180   -0.262168    0.000000
      9          1           0       -4.607522    0.904826    0.891720
     10          1           0       -5.418019   -0.411384    0.000000
     11          1           0       -4.607522    0.904825   -0.891721
     12          1           0       -3.196986   -1.209492    0.888615
     13          1           0       -3.196985   -1.209492   -0.888615
     14          1           0       -1.984365    1.016471    0.888722
     15          1           0       -1.984365    1.016471   -0.888722
     16          1           0       -0.607339   -1.113024   -0.888732
     17          1           0       -0.607339   -1.113024    0.888732
     18          1           0        0.607340    1.113024    0.888732
     19          1           0        0.607339    1.113024   -0.888732
     20          1           0        1.984365   -1.016471   -0.888722
     21          1           0        1.984365   -1.016471    0.888722
     22          1           0        3.196986    1.209492   -0.888615
     23          1           0        3.196986    1.209492    0.888615
     24          1           0        4.607523   -0.904825   -0.891721
     25          1           0        5.418019    0.411384    0.000000
     26          1           0        4.607522   -0.904826    0.891720
 ---------------------------------------------------------------------
 Rotational constants (GHZ):     10.3840327      0.4752755      0.4651466

 **********************************************************************

            Population analysis using the SCF density.

 **********************************************************************

 Orbital symmetries:
       Occupied  (A) (A) (A) (A) (A) (A) (A) (A) (A) (A) (A) (A)
                 (A) (A) (A) (A) (A) (A) (A) (A) (A) (A) (A) (A)
                 (A) (A) (A) (A) (A) (A) (A) (A) (A)
       Virtual   (A) (A) (A) (A) (A) (A) (A) (A) (A) (A) (A) (A)
                 (A) (A) (A) (A) (A) (A) (A) (A) (A) (A) (A) (A)
                 (A)
 The electronic state is 1-A.
 Alpha  occ. eigenvalues --  -10.00721 -10.00720 -10.00470 -10.00422 -10.00361
 Alpha  occ. eigenvalues --  -10.00304  -9.99967  -9.99967  -0.76096  -0.73915
 Alpha  occ. eigenvalues --   -0.70340  -0.65627  -0.60280  -0.55577  -0.53992
 Alpha  occ. eigenvalues --   -0.53645  -0.44310  -0.42311  -0.39237  -0.39167
 Alpha  occ. eigenvalues --   -0.37706  -0.36327  -0.35640  -0.34336  -0.32288
 Alpha  occ. eigenvalues --   -0.31181  -0.30481  -0.29879  -0.28914  -0.28657
 Alpha  occ. eigenvalues --   -0.28320  -0.27797  -0.24845
 Alpha virt. eigenvalues --    0.32018   0.36019   0.38264   0.38363   0.38387
 Alpha virt. eigenvalues --    0.39105   0.40993   0.41421   0.44077   0.44845
 Alpha virt. eigenvalues --    0.45106   0.47394   0.47590   0.48047   0.48111
 Alpha virt. eigenvalues --    0.49565   0.49677   0.49690   0.50286   0.51101
 Alpha virt. eigenvalues --    0.51251   0.52220   0.52312   0.53755   0.55738
          Condensed to atoms (all electrons):
               1          2          3          4          5          6
     1  C    4.785621   0.359424  -0.019938   0.000600  -0.000004   0.000000
     2  C    0.359424   4.776176   0.358333  -0.019063   0.000585  -0.000003
     3  C   -0.019938   0.358333   4.788029   0.358167  -0.018997   0.000585
     4  C    0.000600  -0.019063   0.358167   4.788107   0.358120  -0.018997
     5  C   -0.000004   0.000585  -0.018997   0.358120   4.788107   0.358167
     6  C    0.000000  -0.000003   0.000585  -0.018997   0.358167   4.788029
     7  C    0.000000   0.000000  -0.000003   0.000585  -0.019063   0.358333
     8  C    0.000000   0.000000   0.000000  -0.000004   0.000600  -0.019938
     9  H    0.379494  -0.019568  -0.001953   0.000006   0.000000   0.000000
    10  H    0.379546  -0.018571   0.001146  -0.000013   0.000000   0.000000
    11  H    0.379494  -0.019568  -0.001953   0.000006   0.000000   0.000000
    12  H   -0.021190   0.378131  -0.021338  -0.001943   0.000004   0.000000
    13  H   -0.021190   0.378131  -0.021338  -0.001943   0.000004   0.000000
    14  H   -0.001919  -0.021234   0.377531  -0.021210  -0.001945   0.000005
    15  H   -0.001919  -0.021234   0.377531  -0.021210  -0.001945   0.000005
    16  H    0.000005  -0.001948  -0.021229   0.377511  -0.021219  -0.001946
    17  H    0.000005  -0.001948  -0.021229   0.377511  -0.021219  -0.001946
    18  H    0.000000   0.000005  -0.001946  -0.021219   0.377511  -0.021229
    19  H    0.000000   0.000005  -0.001946  -0.021219   0.377511  -0.021229
    20  H    0.000000   0.000000   0.000005  -0.001945  -0.021210   0.377531
    21  H    0.000000   0.000000   0.000005  -0.001945  -0.021210   0.377531
    22  H    0.000000   0.000000   0.000000   0.000004  -0.001943  -0.021338
    23  H    0.000000   0.000000   0.000000   0.000004  -0.001943  -0.021338
    24  H    0.000000   0.000000   0.000000   0.000000   0.000006  -0.001953
    25  H    0.000000   0.000000   0.000000   0.000000  -0.000013   0.001146
    26  H    0.000000   0.000000   0.000000   0.000000   0.000006  -0.001953
               7          8          9         10         11         12
     1  C    0.000000   0.000000   0.379494   0.379546   0.379494  -0.021190
     2  C    0.000000   0.000000  -0.019568  -0.018571  -0.019568   0.378131
     3  C   -0.000003   0.000000  -0.001953   0.001146  -0.001953  -0.021338
     4  C    0.000585  -0.000004   0.000006  -0.000013   0.000006  -0.001943
     5  C   -0.019063   0.000600   0.000000   0.000000   0.000000   0.000004
     6  C    0.358333  -0.019938   0.000000   0.000000   0.000000   0.000000
     7  C    4.776176   0.359424   0.000000   0.000000   0.000000   0.000000
     8  C    0.359424   4.785621   0.000000   0.000000   0.000000   0.000000
     9  H    0.000000   0.000000   0.613497  -0.020908  -0.021156  -0.002171
    10  H    0.000000   0.000000  -0.020908   0.612447  -0.020908  -0.002053
    11  H    0.000000   0.000000  -0.021156  -0.020908   0.613497   0.001807
    12  H    0.000000   0.000000  -0.002171  -0.002053   0.001807   0.625063
    13  H    0.000000   0.000000   0.001807  -0.002053  -0.002171  -0.022908
    14  H    0.000000   0.000000   0.000534   0.000006  -0.000012  -0.002204
    15  H    0.000000   0.000000  -0.000012   0.000006   0.000534   0.001817
    16  H    0.000005   0.000000   0.000000   0.000000   0.000002  -0.000002
    17  H    0.000005   0.000000   0.000002   0.000000   0.000000   0.000541
    18  H   -0.001948   0.000005   0.000000   0.000000   0.000000   0.000002
    19  H   -0.001948   0.000005   0.000000   0.000000   0.000000   0.000000
    20  H   -0.021234  -0.001919   0.000000   0.000000   0.000000   0.000000
    21  H   -0.021234  -0.001919   0.000000   0.000000   0.000000   0.000000
    22  H    0.378131  -0.021190   0.000000   0.000000   0.000000   0.000000
    23  H    0.378131  -0.021190   0.000000   0.000000   0.000000   0.000000
    24  H   -0.019568   0.379494   0.000000   0.000000   0.000000   0.000000
    25  H   -0.018571   0.379546   0.000000   0.000000   0.000000   0.000000
    26  H   -0.019568   0.379494   0.000000   0.000000   0.000000   0.000000
              13         14         15         16         17         18
     1  C   -0.021190  -0.001919  -0.001919   0.000005   0.000005   0.000000
     2  C    0.378131  -0.021234  -0.021234  -0.001948  -0.001948   0.000005
     3  C   -0.021338   0.377531   0.377531  -0.021229  -0.021229  -0.001946
     4  C   -0.001943  -0.021210  -0.021210   0.377511   0.377511  -0.021219
     5  C    0.000004  -0.001945  -0.001945  -0.021219  -0.021219   0.377511
     6  C    0.000000   0.000005   0.000005  -0.001946  -0.001946  -0.021229
     7  C    0.000000   0.000000   0.000000   0.000005   0.000005  -0.001948
     8  C    0.000000   0.000000   0.000000   0.000000   0.000000   0.000005
     9  H    0.001807   0.000534  -0.000012   0.000000   0.000002   0.000000
    10  H   -0.002053   0.000006   0.000006   0.000000   0.000000   0.000000
    11  H   -0.002171  -0.000012   0.000534   0.000002   0.000000   0.000000
    12  H   -0.022908  -0.002204   0.001817  -0.000002   0.000541   0.000002
    13  H    0.625063   0.001817  -0.002204   0.000541  -0.000002   0.000000
    14  H    0.001817   0.626446  -0.022995   0.001812  -0.002194   0.000533
    15  H   -0.002204  -0.022995   0.626446  -0.002194   0.001812  -0.000001
    16  H    0.000541   0.001812  -0.002194   0.626577  -0.023010   0.001813
    17  H   -0.000002  -0.002194   0.001812  -0.023010   0.626577  -0.002195
    18  H    0.000000   0.000533  -0.000001   0.001813  -0.002195   0.626577
    19  H    0.000002  -0.000001   0.000533  -0.002195   0.001813  -0.023010
    20  H    0.000000   0.000000   0.000002   0.000533  -0.000001   0.001812
    21  H    0.000000   0.000002   0.000000  -0.000001   0.000533  -0.002194
    22  H    0.000000   0.000000   0.000000   0.000002   0.000000  -0.000002
    23  H    0.000000   0.000000   0.000000   0.000000   0.000002   0.000541
    24  H    0.000000   0.000000   0.000000   0.000000   0.000000   0.000000
    25  H    0.000000   0.000000   0.000000   0.000000   0.000000   0.000000
    26  H    0.000000   0.000000   0.000000   0.000000   0.000000   0.000002
              19         20         21         22         23         24
     1  C    0.000000   0.000000   0.000000   0.000000   0.000000   0.000000
     2  C    0.000005   0.000000   0.000000   0.000000   0.000000   0.000000
     3  C   -0.001946   0.000005   0.000005   0.000000   0.000000   0.000000
     4  C   -0.021219  -0.001945  -0.001945   0.000004   0.000004   0.000000
     5  C    0.377511  -0.021210  -0.021210  -0.001943  -0.001943   0.000006
     6  C   -0.021229   0.377531   0.377531  -0.021338  -0.021338  -0.001953
     7  C   -0.001948  -0.021234  -0.021234   0.378131   0.378131  -0.019568
     8  C    0.000005  -0.001919  -0.001919  -0.021190  -0.021190   0.379494
     9  H    0.000000   0.000000   0.000000   0.000000   0.000000   0.000000
    10  H    0.000000   0.000000   0.000000   0.000000   0.000000   0.000000
    11  H    0.000000   0.000000   0.000000   0.000000   0.000000   0.000000
    12  H    0.000000   0.000000   0.000000   0.000000   0.000000   0.000000
    13  H    0.000002   0.000000   0.000000   0.000000   0.000000   0.000000
    14  H   -0.000001   0.000000   0.000002   0.000000   0.000000   0.000000
    15  H    0.000533   0.000002   0.000000   0.000000   0.000000   0.000000
    16  H   -0.002195   0.000533  -0.000001   0.000002   0.000000   0.000000
    17  H    0.001813  -0.000001   0.000533   0.000000   0.000002   0.000000
    18  H   -0.023010   0.001812  -0.002194  -0.000002   0.000541   0.000000
    19  H    0.626577  -0.002194   0.001812   0.000541  -0.000002   0.000002
    20  H   -0.002194   0.626446  -0.022995  -0.002204   0.001817   0.000534
    21  H    0.001812  -0.022995   0.626446   0.001817  -0.002204  -0.000012
    22  H    0.000541  -0.002204   0.001817   0.625063  -0.022908  -0.002171
    23  H   -0.000002   0.001817  -0.002204  -0.022908   0.625063   0.001807
    24  H    0.000002   0.000534  -0.000012  -0.002171   0.001807   0.613497
    25  H    0.000000   0.000006   0.000006  -0.002053  -0.002053  -0.020908
    26  H    0.000000  -0.000012   0.000534   0.001807  -0.002171  -0.021156
              25         26
     1  C    0.000000   0.000000
     2  C    0.000000   0.000000
     3  C    0.000000   0.000000
     4  C    0.000000   0.000000
     5  C   -0.000013   0.000006
     6  C    0.001146  -0.001953
     7  C   -0.018571  -0.019568
     8  C    0.379546   0.379494
     9  H    0.000000   0.000000
    10  H    0.000000   0.000000
    11  H    0.000000   0.000000
    12  H    0.000000   0.000000
    13  H    0.000000   0.000000
    14  H    0.000000   0.000000
    15  H    0.000000   0.000000
    16  H    0.000000   0.000000
    17  H    0.000000   0.000000
    18  H    0.000000   0.000002
    19  H    0.000000   0.000000
    20  H    0.000006  -0.000012
    21  H    0.000006   0.000534
    22  H   -0.002053   0.001807
    23  H   -0.002053  -0.002171
    24  H   -0.020908  -0.021156
    25  H    0.612447  -0.020908
    26  H   -0.020908   0.613497
 Mulliken charges:
               1
     1  C   -0.218028
     2  C   -0.127651
     3  C   -0.129459
     4  C   -0.129911
     5  C   -0.129911
     6  C   -0.129459
     7  C   -0.127651
     8  C   -0.218028
     9  H    0.070428
    10  H    0.071354
    11  H    0.070428
    12  H    0.066444
    13  H    0.066444
    14  H    0.065029
    15  H    0.065029
    16  H    0.064946
    17  H    0.064946
    18  H    0.064946
    19  H    0.064946
    20  H    0.065029
    21  H    0.065029
    22  H    0.066444
    23  H    0.066444
    24  H    0.070428
    25  H    0.071354
    26  H    0.070428
 Sum of Mulliken charges =   0.00000
 Mulliken charges with hydrogens summed into heavy atoms:
               1
     1  C   -0.005818
     2  C    0.005238
     3  C    0.000598
     4  C   -0.000018
     5  C   -0.000018
     6  C    0.000598
     7  C    0.005238
     8  C   -0.005818
 Electronic spatial extent (au):  <R**2>=           2489.4967
 Charge=              0.0000 electrons
 Dipole moment (field-independent basis, Debye):
    X=              0.0000    Y=              0.0000    Z=              0.0000  Tot=              0.0000
 Quadrupole moment (field-independent basis, Debye-Ang):
   XX=            -51.9628   YY=            -51.1068   ZZ=            -50.3570
   XY=              0.2082   XZ=              0.0000   YZ=              0.0000
 Traceless Quadrupole moment (field-independent basis, Debye-Ang):
   XX=             -0.8206   YY=              0.0354   ZZ=              0.7852
   XY=              0.2082   XZ=              0.0000   YZ=              0.0000
 Octapole moment (field-independent basis, Debye-Ang**2):
  XXX=              0.0000  YYY=              0.0000  ZZZ=              0.0000  XYY=              0.0000
  XXY=              0.0000  XXZ=              0.0000  XZZ=              0.0000  YZZ=              0.0000
  YYZ=              0.0000  XYZ=              0.0000
 Hexadecapole moment (field-independent basis, Debye-Ang**3):
 XXXX=          -2982.1679 YYYY=           -169.2103 ZZZZ=            -95.9964 XXXY=             19.8481
 XXXZ=              0.0000 YYYX=              0.3203 YYYZ=              0.0000 ZZZX=              0.0000
 ZZZY=              0.0000 XXYY=           -518.5381 XXZZ=           -504.4205 YYZZ=            -38.2346
 XXYZ=              0.0000 YYXZ=              0.0000 ZZXY=             -3.3580
 N-N= 3.691241146619D+02 E-N=-1.457773133527D+03  KE= 3.063667798409D+02
 1\1\GINC-PC-AVL46\FOpt\RB3LYP\STO-3G\C8H18\BING\28-Jan-2019\0\\# opt(t
 ight) b3lyp/sto-3g\\c08h18\\0,1\C,0.3773018225,-1.4280222075,-2.261503
 3471\C,0.8133996547,-2.7895116086,-1.6473126368\C,2.0893866311,-2.6585
 35552,-0.7580290193\C,2.5261969453,-4.0245717335,-0.1423227534\C,3.802
 1537782,-3.893437479,0.7469043635\C,4.2389641519,-5.2594736608,1.36261
 0562\C,5.5149510021,-5.128497574,2.2518943606\C,5.9510490711,-6.489987
 083,2.8660846757\H,0.1517554942,-0.6983341574,-1.4687236267\H,-0.52342
 57254,-1.5535327086,-2.8819618482\H,1.1771198441,-1.0127144956,-2.8936
 632304\H,-0.0128719846,-3.1980704857,-1.0395637576\H,1.0089219358,-3.5
 113560383,-2.4595413811\H,1.8944632283,-1.9372799862,0.0548942196\H,2.
 9163798362,-2.2506028363,-1.365253901\H,2.7207590525,-4.7455665337,-0.
 9555763915\H,1.6988305728,-4.4322400593,0.4645881292\H,3.607591635,-3.
 1724427297,1.5601580395\H,4.629520131,-3.4857690799,0.1399935036\H,4.4
 338877013,-5.9807291584,0.5496872955\H,3.4119709143,-5.6674064841,1.96
 98353264\H,6.3412226135,-4.7199383102,1.6441457064\H,5.3194284603,-4.4
 06653452,3.0641233164\H,6.1765959702,-7.2196747209,2.073304739\H,6.851
 776328,-6.3644765303,3.4865435877\H,5.1512309389,-6.9052953362,3.49824
 4063\\Version=ES64L-G09RevD.01\State=1-A\HF=-311.9748921\RMSD=2.764e-0
 9\RMSF=7.287e-07\Dipole=0.,0.,0.\Quadrupole=0.0490074,-0.2532016,0.204
 1941,0.195056,-0.4278418,0.3250178\PG=C01 [X(C8H18)]\\@


 FOR THE NATURE OF THE CHEMICAL BOND
 IS THE PROBLEM AT THE HEART OF ALL CHEMISTRY.

                     -- BRYCE CRAWFORD, JR., 1953
 Job cpu time:       0 days  0 hours  2 minutes  2.5 seconds.
 File lengths (MBytes):  RWF=      5 Int=      0 D2E=      0 Chk=      2 Scr=      1
 Normal termination of Gaussian 09 at Mon Jan 28 19:29:41 2019.
