 Entering Gaussian System, Link 0=g09
 Input=c08h10.com
 Output=c08h10.out
 Initial command:
 /apps/g09_d.01/g09/l1.exe "/data/scratch/Gau-51397.inp" -scrdir="/data/scratch/"
 Entering Link 1 = /apps/g09_d.01/g09/l1.exe PID=     51401.
  
 Copyright (c) 1988,1990,1992,1993,1995,1998,2003,2009,2013,
            Gaussian, Inc.  All Rights Reserved.
  
 This is part of the Gaussian(R) 09 program.  It is based on
 the Gaussian(R) 03 system (copyright 2003, Gaussian, Inc.),
 the Gaussian(R) 98 system (copyright 1998, Gaussian, Inc.),
 the Gaussian(R) 94 system (copyright 1995, Gaussian, Inc.),
 the Gaussian 92(TM) system (copyright 1992, Gaussian, Inc.),
 the Gaussian 90(TM) system (copyright 1990, Gaussian, Inc.),
 the Gaussian 88(TM) system (copyright 1988, Gaussian, Inc.),
 the Gaussian 86(TM) system (copyright 1986, Carnegie Mellon
 University), and the Gaussian 82(TM) system (copyright 1983,
 Carnegie Mellon University). Gaussian is a federally registered
 trademark of Gaussian, Inc.
  
 This software contains proprietary and confidential information,
 including trade secrets, belonging to Gaussian, Inc.
  
 This software is provided under written license and may be
 used, copied, transmitted, or stored only in accord with that
 written license.
  
 The following legend is applicable only to US Government
 contracts under FAR:
  
                    RESTRICTED RIGHTS LEGEND
  
 Use, reproduction and disclosure by the US Government is
 subject to restrictions as set forth in subparagraphs (a)
 and (c) of the Commercial Computer Software - Restricted
 Rights clause in FAR 52.227-19.
  
 Gaussian, Inc.
 340 Quinnipiac St., Bldg. 40, Wallingford CT 06492
  
  
 ---------------------------------------------------------------
 Warning -- This program may not be used in any manner that
 competes with the business of Gaussian, Inc. or will provide
 assistance to any competitor of Gaussian, Inc.  The licensee
 of this program is prohibited from giving any competitor of
 Gaussian, Inc. access to this program.  By using this program,
 the user acknowledges that Gaussian, Inc. is engaged in the
 business of creating and licensing software in the field of
 computational chemistry and represents and warrants to the
 licensee that it is not a competitor of Gaussian, Inc. and that
 it will not use this program in any manner prohibited above.
 ---------------------------------------------------------------
  

 Cite this work as:
 Gaussian 09, Revision D.01,
 M. J. Frisch, G. W. Trucks, H. B. Schlegel, G. E. Scuseria, 
 M. A. Robb, J. R. Cheeseman, G. Scalmani, V. Barone, B. Mennucci, 
 G. A. Petersson, H. Nakatsuji, M. Caricato, X. Li, H. P. Hratchian, 
 A. F. Izmaylov, J. Bloino, G. Zheng, J. L. Sonnenberg, M. Hada, 
 M. Ehara, K. Toyota, R. Fukuda, J. Hasegawa, M. Ishida, T. Nakajima, 
 Y. Honda, O. Kitao, H. Nakai, T. Vreven, J. A. Montgomery, Jr., 
 J. E. Peralta, F. Ogliaro, M. Bearpark, J. J. Heyd, E. Brothers, 
 K. N. Kudin, V. N. Staroverov, T. Keith, R. Kobayashi, J. Normand, 
 K. Raghavachari, A. Rendell, J. C. Burant, S. S. Iyengar, J. Tomasi, 
 M. Cossi, N. Rega, J. M. Millam, M. Klene, J. E. Knox, J. B. Cross, 
 V. Bakken, C. Adamo, J. Jaramillo, R. Gomperts, R. E. Stratmann, 
 O. Yazyev, A. J. Austin, R. Cammi, C. Pomelli, J. W. Ochterski, 
 R. L. Martin, K. Morokuma, V. G. Zakrzewski, G. A. Voth, 
 P. Salvador, J. J. Dannenberg, S. Dapprich, A. D. Daniels, 
 O. Farkas, J. B. Foresman, J. V. Ortiz, J. Cioslowski, 
 and D. J. Fox, Gaussian, Inc., Wallingford CT, 2013.
 
 ******************************************
 Gaussian 09:  ES64L-G09RevD.01 24-Apr-2013
                28-Jan-2019 
 ******************************************
 %nproc=6
 Will use up to    6 processors via shared memory.
 -------------------------
 # opt(tight) b3lyp/sto-3g
 -------------------------
 1/7=10,14=-1,18=20,19=15,26=3,38=1/1,3;
 2/9=110,12=2,17=6,18=5,40=1/2;
 3/6=3,11=2,16=1,25=1,30=1,71=1,74=-5/1,2,3;
 4//1;
 5/5=2,38=5/2;
 6/7=2,8=2,9=2,10=2,28=1/1;
 7//1,2,3,16;
 1/7=10,14=-1,18=20,19=15,26=3/3(2);
 2/9=110/2;
 99//99;
 2/9=110/2;
 3/6=3,11=2,16=1,25=1,30=1,71=1,74=-5/1,2,3;
 4/5=5,16=3,69=1/1;
 5/5=2,38=5/2;
 7//1,2,3,16;
 1/7=10,14=-1,18=20,19=15,26=3/3(-5);
 2/9=110/2;
 6/7=2,8=2,9=2,10=2,19=2,28=1/1;
 99/9=1/99;
 ------
 c08h10
 ------
 Symbolic Z-matrix:
 Charge =  0 Multiplicity = 1
 C                     1.36227   1.01424  -0.56028 
 C                     2.54203   0.65042  -0.05237 
 C                     2.62823  -0.10997   1.21123 
 C                     3.81422  -0.4729    1.71725 
 C                     3.90108  -1.23356   2.98125 
 C                     5.08707  -1.59642   3.48732 
 C                     5.17327  -2.35679   4.75093 
 C                     6.35304  -2.72043   5.25895 
 H                     0.43228   0.76179  -0.05939 
 H                     1.32122   1.57256  -1.48996 
 H                     3.44984   0.92252  -0.5842 
 H                     1.71261  -0.37652   1.73439 
 H                     4.72932  -0.20592   1.19342 
 H                     2.98598  -1.50058   3.50506 
 H                     6.00269  -1.32982   2.96419 
 H                     4.26545  -2.62899   5.2827 
 H                     6.39409  -3.27873   6.18864 
 H                     7.28304  -2.46786   4.75813 
 

 GradGradGradGradGradGradGradGradGradGradGradGradGradGradGradGradGradGrad
 Berny optimization.
 Initialization pass.
                           ----------------------------
                           !    Initial Parameters    !
                           ! (Angstroms and Degrees)  !
 --------------------------                            --------------------------
 ! Name  Definition              Value          Derivative Info.                !
 --------------------------------------------------------------------------------
 ! R1    R(1,2)                  1.335          estimate D2E/DX2                !
 ! R2    R(1,9)                  1.086          estimate D2E/DX2                !
 ! R3    R(1,10)                 1.0852         estimate D2E/DX2                !
 ! R4    R(2,3)                  1.4773         estimate D2E/DX2                !
 ! R5    R(2,11)                 1.0867         estimate D2E/DX2                !
 ! R6    R(3,4)                  1.3395         estimate D2E/DX2                !
 ! R7    R(3,12)                 1.0877         estimate D2E/DX2                !
 ! R8    R(4,5)                  1.4778         estimate D2E/DX2                !
 ! R9    R(4,13)                 1.0877         estimate D2E/DX2                !
 ! R10   R(5,6)                  1.3395         estimate D2E/DX2                !
 ! R11   R(5,14)                 1.0877         estimate D2E/DX2                !
 ! R12   R(6,7)                  1.4773         estimate D2E/DX2                !
 ! R13   R(6,15)                 1.0877         estimate D2E/DX2                !
 ! R14   R(7,8)                  1.335          estimate D2E/DX2                !
 ! R15   R(7,16)                 1.0867         estimate D2E/DX2                !
 ! R16   R(8,17)                 1.0852         estimate D2E/DX2                !
 ! R17   R(8,18)                 1.0861         estimate D2E/DX2                !
 ! A1    A(2,1,9)              121.193          estimate D2E/DX2                !
 ! A2    A(2,1,10)             119.9715         estimate D2E/DX2                !
 ! A3    A(9,1,10)             118.8356         estimate D2E/DX2                !
 ! A4    A(1,2,3)              121.1499         estimate D2E/DX2                !
 ! A5    A(1,2,11)             118.9337         estimate D2E/DX2                !
 ! A6    A(3,2,11)             119.9164         estimate D2E/DX2                !
 ! A7    A(2,3,4)              120.9469         estimate D2E/DX2                !
 ! A8    A(2,3,12)             119.2373         estimate D2E/DX2                !
 ! A9    A(4,3,12)             119.8158         estimate D2E/DX2                !
 ! A10   A(3,4,5)              120.9714         estimate D2E/DX2                !
 ! A11   A(3,4,13)             119.7657         estimate D2E/DX2                !
 ! A12   A(5,4,13)             119.2629         estimate D2E/DX2                !
 ! A13   A(4,5,6)              120.9717         estimate D2E/DX2                !
 ! A14   A(4,5,14)             119.2631         estimate D2E/DX2                !
 ! A15   A(6,5,14)             119.7651         estimate D2E/DX2                !
 ! A16   A(5,6,7)              120.9472         estimate D2E/DX2                !
 ! A17   A(5,6,15)             119.8154         estimate D2E/DX2                !
 ! A18   A(7,6,15)             119.2374         estimate D2E/DX2                !
 ! A19   A(6,7,8)              121.15           estimate D2E/DX2                !
 ! A20   A(6,7,16)             119.9162         estimate D2E/DX2                !
 ! A21   A(8,7,16)             118.9338         estimate D2E/DX2                !
 ! A22   A(7,8,17)             119.9715         estimate D2E/DX2                !
 ! A23   A(7,8,18)             121.193          estimate D2E/DX2                !
 ! A24   A(17,8,18)            118.8356         estimate D2E/DX2                !
 ! D1    D(9,1,2,3)             -0.0009         estimate D2E/DX2                !
 ! D2    D(9,1,2,11)          -179.9994         estimate D2E/DX2                !
 ! D3    D(10,1,2,3)           179.9996         estimate D2E/DX2                !
 ! D4    D(10,1,2,11)            0.001          estimate D2E/DX2                !
 ! D5    D(1,2,3,4)           -179.9968         estimate D2E/DX2                !
 ! D6    D(1,2,3,12)             0.0032         estimate D2E/DX2                !
 ! D7    D(11,2,3,4)             0.0018         estimate D2E/DX2                !
 ! D8    D(11,2,3,12)         -179.9982         estimate D2E/DX2                !
 ! D9    D(2,3,4,5)            179.9999         estimate D2E/DX2                !
 ! D10   D(2,3,4,13)             0.0001         estimate D2E/DX2                !
 ! D11   D(12,3,4,5)            -0.0001         estimate D2E/DX2                !
 ! D12   D(12,3,4,13)         -179.9999         estimate D2E/DX2                !
 ! D13   D(3,4,5,6)           -179.9957         estimate D2E/DX2                !
 ! D14   D(3,4,5,14)             0.0029         estimate D2E/DX2                !
 ! D15   D(13,4,5,6)             0.004          estimate D2E/DX2                !
 ! D16   D(13,4,5,14)         -179.9973         estimate D2E/DX2                !
 ! D17   D(4,5,6,7)            179.9991         estimate D2E/DX2                !
 ! D18   D(4,5,6,15)            -0.0007         estimate D2E/DX2                !
 ! D19   D(14,5,6,7)             0.0005         estimate D2E/DX2                !
 ! D20   D(14,5,6,15)         -179.9993         estimate D2E/DX2                !
 ! D21   D(5,6,7,8)           -179.9969         estimate D2E/DX2                !
 ! D22   D(5,6,7,16)             0.0021         estimate D2E/DX2                !
 ! D23   D(15,6,7,8)             0.0028         estimate D2E/DX2                !
 ! D24   D(15,6,7,16)         -179.9981         estimate D2E/DX2                !
 ! D25   D(6,7,8,17)           179.9998         estimate D2E/DX2                !
 ! D26   D(6,7,8,18)            -0.0005         estimate D2E/DX2                !
 ! D27   D(16,7,8,17)            0.0008         estimate D2E/DX2                !
 ! D28   D(16,7,8,18)         -179.9995         estimate D2E/DX2                !
 --------------------------------------------------------------------------------
 Trust Radius=3.00D-01 FncErr=1.00D-07 GrdErr=1.00D-06
 Number of steps in this run=     79 maximum allowed number of steps=    108.
 GradGradGradGradGradGradGradGradGradGradGradGradGradGradGradGradGradGrad

                          Input orientation:                          
 ---------------------------------------------------------------------
 Center     Atomic      Atomic             Coordinates (Angstroms)
 Number     Number       Type             X           Y           Z
 ---------------------------------------------------------------------
      1          6           0        1.362270    1.014240   -0.560280
      2          6           0        2.542030    0.650420   -0.052370
      3          6           0        2.628230   -0.109970    1.211230
      4          6           0        3.814220   -0.472900    1.717250
      5          6           0        3.901080   -1.233560    2.981250
      6          6           0        5.087070   -1.596420    3.487320
      7          6           0        5.173270   -2.356790    4.750930
      8          6           0        6.353040   -2.720430    5.258950
      9          1           0        0.432280    0.761790   -0.059390
     10          1           0        1.321220    1.572560   -1.489960
     11          1           0        3.449840    0.922520   -0.584200
     12          1           0        1.712610   -0.376520    1.734390
     13          1           0        4.729320   -0.205920    1.193420
     14          1           0        2.985980   -1.500580    3.505060
     15          1           0        6.002690   -1.329820    2.964190
     16          1           0        4.265450   -2.628990    5.282700
     17          1           0        6.394090   -3.278730    6.188640
     18          1           0        7.283040   -2.467860    4.758130
 ---------------------------------------------------------------------
                    Distance matrix (angstroms):
                    1          2          3          4          5
     1  C    0.000000
     2  C    1.334980   0.000000
     3  C    2.450459   1.477264   0.000000
     4  C    3.662074   2.451912   1.339532   0.000000
     5  C    4.903121   3.820896   2.452666   1.477784   0.000000
     6  C    6.088739   4.904582   3.665517   2.452670   1.339532
     7  C    7.355033   6.248074   4.904580   3.820899   2.451914
     8  C    8.527543   7.355035   6.088739   4.903125   3.662077
     9  H    1.086049   2.112699   2.682655   4.014776   5.025882
    10  H    1.085224   2.099377   3.440292   4.548093   5.875518
    11  H    2.089721   1.086738   2.228149   2.715997   4.191030
    12  H    2.706005   2.221498   1.087706   2.103889   2.660560
    13  H    3.987641   2.658862   2.103355   1.087697   2.222242
    14  H    5.048539   4.180813   2.706185   2.222245   1.087697
    15  H    6.280924   4.999715   3.993480   2.660559   2.103883
    16  H    7.472750   6.495204   5.059923   4.191034   2.716001
    17  H    9.449694   8.320264   6.999811   5.875520   4.548095
    18  H    8.687118   7.439204   6.309311   5.025886   4.014779
                    6          7          8          9         10
     6  C    0.000000
     7  C    1.477262   0.000000
     8  C    2.450459   1.334982   0.000000
     9  H    6.309309   7.439201   8.687117   0.000000
    10  H    6.999813   8.320264   9.449696   1.869249   0.000000
    11  H    5.059926   6.495206   7.472754   3.067072   2.402910
    12  H    3.993482   4.999715   6.280926   2.480452   3.787946
    13  H    2.706188   4.180815   5.048541   4.579361   4.688141
    14  H    2.103350   2.658858   3.987638   4.934066   6.096379
    15  H    1.087704   2.221496   2.706005   6.674304   7.083744
    16  H    2.228149   1.086743   2.089727   7.397872   8.496496
    17  H    3.440290   2.099377   1.085222   9.534509  10.403361
    18  H    2.682657   2.112704   1.086054   8.976194   9.534512
                   11         12         13         14         15
    11  H    0.000000
    12  H    3.175111   0.000000
    13  H    2.463814   3.069575   0.000000
    14  H    4.775838   2.453621   3.171602   0.000000
    15  H    4.917433   4.563549   2.453620   3.069567   0.000000
    16  H    6.906443   4.917430   4.775841   2.463809   3.175112
    17  H    8.496498   7.083743   6.096380   4.688137   3.787944
    18  H    7.397877   6.674309   4.934067   4.579360   2.480454
                   16         17         18
    16  H    0.000000
    17  H    2.402914   0.000000
    18  H    3.067081   1.869251   0.000000
 Stoichiometry    C8H10
 Framework group  C1[X(C8H10)]
 Deg. of freedom    48
 Full point group                 C1      NOp   1
 Largest Abelian subgroup         C1      NOp   1
 Largest concise Abelian subgroup C1      NOp   1
                         Standard orientation:                         
 ---------------------------------------------------------------------
 Center     Atomic      Atomic             Coordinates (Angstroms)
 Number     Number       Type             X           Y           Z
 ---------------------------------------------------------------------
      1          6           0        4.258202    0.217843    0.000091
      2          6           0        3.093631   -0.434803   -0.000015
      3          6           0        1.808942    0.294500   -0.000024
      4          6           0        0.642728   -0.364508   -0.000065
      5          6           0       -0.642725    0.364502   -0.000071
      6          6           0       -1.808943   -0.294498   -0.000027
      7          6           0       -3.093631    0.434804   -0.000014
      8          6           0       -4.258204   -0.217841    0.000092
      9          1           0        4.294702    1.303279    0.000160
     10          1           0        5.190739   -0.337212    0.000102
     11          1           0        3.099953   -1.521523   -0.000072
     12          1           0        1.815505    1.382186    0.000005
     13          1           0        0.637115   -1.452190   -0.000092
     14          1           0       -0.637117    1.452185   -0.000090
     15          1           0       -1.815506   -1.382183    0.000002
     16          1           0       -3.099950    1.521528   -0.000073
     17          1           0       -5.190738    0.337214    0.000103
     18          1           0       -4.294704   -1.303281    0.000162
 ---------------------------------------------------------------------
 Rotational constants (GHZ):     18.4682664      0.5798038      0.5621551
 Standard basis: STO-3G (5D, 7F)
 There are    50 symmetry adapted cartesian basis functions of A   symmetry.
 There are    50 symmetry adapted basis functions of A   symmetry.
    50 basis functions,   150 primitive gaussians,    50 cartesian basis functions
    29 alpha electrons       29 beta electrons
       nuclear repulsion energy       298.1589179915 Hartrees.
 NAtoms=   18 NActive=   18 NUniq=   18 SFac= 1.00D+00 NAtFMM=   60 NAOKFM=F Big=F
 Integral buffers will be    131072 words long.
 Raffenetti 2 integral format.
 Two-electron integral symmetry is turned on.
 One-electron integrals computed using PRISM.
 NBasis=    50 RedAO= T EigKep=  1.83D-01  NBF=    50
 NBsUse=    50 1.00D-06 EigRej= -1.00D+00 NBFU=    50
 ExpMin= 1.69D-01 ExpMax= 7.16D+01 ExpMxC= 7.16D+01 IAcc=1 IRadAn=         1 AccDes= 0.00D+00
 Harris functional with IExCor=  402 and IRadAn=       1 diagonalized for initial guess.
 HarFok:  IExCor=  402 AccDes= 0.00D+00 IRadAn=         1 IDoV= 1 UseB2=F ITyADJ=14
 ICtDFT=  3500011 ScaDFX=  1.000000  1.000000  1.000000  1.000000
 FoFCou: FMM=F IPFlag=           0 FMFlag=      100000 FMFlg1=           0
         NFxFlg=           0 DoJE=T BraDBF=F KetDBF=T FulRan=T
         wScrn=  0.000000 ICntrl=     500 IOpCl=  0 I1Cent=   200000004 NGrid=           0
         NMat0=    1 NMatS0=      1 NMatT0=    0 NMatD0=    1 NMtDS0=    0 NMtDT0=    0
 Petite list used in FoFCou.
 Keep R1 ints in memory in canonical form, NReq=1710030.
 Requested convergence on RMS density matrix=1.00D-08 within 128 cycles.
 Requested convergence on MAX density matrix=1.00D-06.
 Requested convergence on             energy=1.00D-06.
 No special actions if energy rises.
 Integral accuracy reduced to 1.0D-05 until final iterations.
 Initial convergence to 1.0D-05 achieved.  Increase integral accuracy.
 SCF Done:  E(RB3LYP) =  -306.981597600     A.U. after   12 cycles
            NFock= 12  Conv=0.64D-08     -V/T= 2.0157

 **********************************************************************

            Population analysis using the SCF density.

 **********************************************************************

 Orbital symmetries:
       Occupied  (A) (A) (A) (A) (A) (A) (A) (A) (A) (A) (A) (A)
                 (A) (A) (A) (A) (A) (A) (A) (A) (A) (A) (A) (A)
                 (A) (A) (A) (A) (A)
       Virtual   (A) (A) (A) (A) (A) (A) (A) (A) (A) (A) (A) (A)
                 (A) (A) (A) (A) (A) (A) (A) (A) (A)
 The electronic state is 1-A.
 Alpha  occ. eigenvalues --  -10.00549 -10.00549 -10.00423 -10.00349 -10.00328
 Alpha  occ. eigenvalues --  -10.00308  -9.98786  -9.98786  -0.78035  -0.75523
 Alpha  occ. eigenvalues --   -0.71651  -0.67110  -0.57513  -0.53072  -0.52266
 Alpha  occ. eigenvalues --   -0.51238  -0.44427  -0.42403  -0.41222  -0.37225
 Alpha  occ. eigenvalues --   -0.35688  -0.34026  -0.33175  -0.31862  -0.29547
 Alpha  occ. eigenvalues --   -0.29203  -0.26101  -0.20642  -0.14150
 Alpha virt. eigenvalues --    0.03191   0.10820   0.17865   0.22513   0.33648
 Alpha virt. eigenvalues --    0.38273   0.41215   0.41621   0.41806   0.42448
 Alpha virt. eigenvalues --    0.43602   0.43947   0.45284   0.56375   0.58247
 Alpha virt. eigenvalues --    0.64024   0.64355   0.70183   0.70326   0.75491
 Alpha virt. eigenvalues --    0.79599
          Condensed to atoms (all electrons):
               1          2          3          4          5          6
     1  C    4.856099   0.583811  -0.031415   0.000861  -0.000009   0.000000
     2  C    0.583811   4.792558   0.423449  -0.030920   0.001016  -0.000009
     3  C   -0.031415   0.423449   4.814927   0.569277  -0.030894   0.000862
     4  C    0.000861  -0.030920   0.569277   4.812280   0.426763  -0.030893
     5  C   -0.000009   0.001016  -0.030894   0.426763   4.812281   0.569277
     6  C    0.000000  -0.000009   0.000862  -0.030893   0.569277   4.814927
     7  C    0.000000   0.000000  -0.000009   0.001016  -0.030919   0.423450
     8  C    0.000000   0.000000   0.000000  -0.000009   0.000861  -0.031415
     9  H    0.390189  -0.025366  -0.005255   0.000045  -0.000001   0.000000
    10  H    0.390720  -0.026066   0.001656  -0.000026   0.000000   0.000000
    11  H   -0.028398   0.390218  -0.022714  -0.003312   0.000007   0.000000
    12  H   -0.003317  -0.022868   0.389732  -0.027510  -0.005197   0.000045
    13  H    0.000046  -0.005211  -0.027563   0.389661  -0.022844  -0.003384
    14  H    0.000000   0.000008  -0.003384  -0.022844   0.389661  -0.027564
    15  H    0.000000  -0.000001   0.000045  -0.005197  -0.027510   0.389732
    16  H    0.000000   0.000000   0.000000   0.000007  -0.003312  -0.022714
    17  H    0.000000   0.000000   0.000000   0.000000  -0.000026   0.001656
    18  H    0.000000   0.000000   0.000000  -0.000001   0.000045  -0.005255
               7          8          9         10         11         12
     1  C    0.000000   0.000000   0.390189   0.390720  -0.028398  -0.003317
     2  C    0.000000   0.000000  -0.025366  -0.026066   0.390218  -0.022868
     3  C   -0.000009   0.000000  -0.005255   0.001656  -0.022714   0.389732
     4  C    0.001016  -0.000009   0.000045  -0.000026  -0.003312  -0.027510
     5  C   -0.030919   0.000861  -0.000001   0.000000   0.000007  -0.005197
     6  C    0.423450  -0.031415   0.000000   0.000000   0.000000   0.000045
     7  C    4.792558   0.583810   0.000000   0.000000   0.000000  -0.000001
     8  C    0.583810   4.856100   0.000000   0.000000   0.000000   0.000000
     9  H    0.000000   0.000000   0.582047  -0.022720   0.002153   0.000872
    10  H    0.000000   0.000000  -0.022720   0.583614  -0.005296   0.000010
    11  H    0.000000   0.000000   0.002153  -0.005296   0.584402   0.001388
    12  H   -0.000001   0.000000   0.000872   0.000010   0.001388   0.583534
    13  H    0.000008   0.000000   0.000001  -0.000002   0.000856   0.002093
    14  H   -0.005211   0.000046   0.000000   0.000000  -0.000001   0.000862
    15  H   -0.022868  -0.003317   0.000000   0.000000   0.000000   0.000001
    16  H    0.390217  -0.028398   0.000000   0.000000   0.000000   0.000000
    17  H   -0.026066   0.390720   0.000000   0.000000   0.000000   0.000000
    18  H   -0.025366   0.390188   0.000000   0.000000   0.000000   0.000000
              13         14         15         16         17         18
     1  C    0.000046   0.000000   0.000000   0.000000   0.000000   0.000000
     2  C   -0.005211   0.000008  -0.000001   0.000000   0.000000   0.000000
     3  C   -0.027563  -0.003384   0.000045   0.000000   0.000000   0.000000
     4  C    0.389661  -0.022844  -0.005197   0.000007   0.000000  -0.000001
     5  C   -0.022844   0.389661  -0.027510  -0.003312  -0.000026   0.000045
     6  C   -0.003384  -0.027564   0.389732  -0.022714   0.001656  -0.005255
     7  C    0.000008  -0.005211  -0.022868   0.390217  -0.026066  -0.025366
     8  C    0.000000   0.000046  -0.003317  -0.028398   0.390720   0.390188
     9  H    0.000001   0.000000   0.000000   0.000000   0.000000   0.000000
    10  H   -0.000002   0.000000   0.000000   0.000000   0.000000   0.000000
    11  H    0.000856  -0.000001   0.000000   0.000000   0.000000   0.000000
    12  H    0.002093   0.000862   0.000001   0.000000   0.000000   0.000000
    13  H    0.584167   0.001389   0.000862  -0.000001   0.000000   0.000000
    14  H    0.001389   0.584168   0.002093   0.000856  -0.000002   0.000001
    15  H    0.000862   0.002093   0.583535   0.001388   0.000010   0.000872
    16  H   -0.000001   0.000856   0.001388   0.584403  -0.005296   0.002153
    17  H    0.000000  -0.000002   0.000010  -0.005296   0.583614  -0.022720
    18  H    0.000000   0.000001   0.000872   0.002153  -0.022720   0.582048
 Mulliken charges:
               1
     1  C   -0.158587
     2  C   -0.080620
     3  C   -0.078714
     4  C   -0.079198
     5  C   -0.079198
     6  C   -0.078715
     7  C   -0.080619
     8  C   -0.158587
     9  H    0.078036
    10  H    0.078110
    11  H    0.080696
    12  H    0.080355
    13  H    0.079922
    14  H    0.079922
    15  H    0.080355
    16  H    0.080696
    17  H    0.078110
    18  H    0.078035
 Sum of Mulliken charges =   0.00000
 Mulliken charges with hydrogens summed into heavy atoms:
               1
     1  C   -0.002441
     2  C    0.000076
     3  C    0.001641
     4  C    0.000724
     5  C    0.000724
     6  C    0.001640
     7  C    0.000077
     8  C   -0.002441
 Electronic spatial extent (au):  <R**2>=           1941.0796
 Charge=              0.0000 electrons
 Dipole moment (field-independent basis, Debye):
    X=              0.0000    Y=              0.0000    Z=              0.0000  Tot=              0.0000
 Quadrupole moment (field-independent basis, Debye-Ang):
   XX=            -43.3168   YY=            -41.3034   ZZ=            -48.5864
   XY=             -0.3147   XZ=              0.0000   YZ=              0.0000
 Traceless Quadrupole moment (field-independent basis, Debye-Ang):
   XX=              1.0854   YY=              3.0988   ZZ=             -4.1841
   XY=             -0.3147   XZ=              0.0000   YZ=              0.0000
 Octapole moment (field-independent basis, Debye-Ang**2):
  XXX=              0.0000  YYY=              0.0000  ZZZ=              0.0000  XYY=              0.0000
  XXY=              0.0000  XXZ=              0.0012  XZZ=              0.0000  YZZ=              0.0000
  YYZ=              0.0000  XYZ=              0.0009
 Hexadecapole moment (field-independent basis, Debye-Ang**3):
 XXXX=          -2235.2715 YYYY=           -119.0780 ZZZZ=            -39.3611 XXXY=            -20.9605
 XXXZ=             -0.0001 YYYX=              1.8614 YYYZ=              0.0000 ZZZX=              0.0000
 ZZZY=              0.0000 XXYY=           -384.0550 XXZZ=           -427.2172 YYZZ=            -30.4699
 XXYZ=              0.0000 YYXZ=              0.0000 ZZXY=              0.1289
 N-N= 2.981589179915D+02 E-N=-1.306649870047D+03  KE= 3.022508941148D+02
 Calling FoFJK, ICntrl=      2127 FMM=F ISym2X=0 I1Cent= 0 IOpClX= 0 NMat=1 NMatS=1 NMatT=0.
 ***** Axes restored to original set *****
 -------------------------------------------------------------------
 Center     Atomic                   Forces (Hartrees/Bohr)
 Number     Number              X              Y              Z
 -------------------------------------------------------------------
      1        6          -0.001741888    0.004104127   -0.006713831
      2        6          -0.012994246   -0.005543498    0.010371514
      3        6           0.002681874    0.011704270   -0.019792893
      4        6          -0.001943560   -0.013757136    0.023155966
      5        6           0.001942914    0.013755417   -0.023154265
      6        6          -0.002682447   -0.011705768    0.019789787
      7        6           0.012993038    0.005545366   -0.010366572
      8        6           0.001742739   -0.004103334    0.006709463
      9        1          -0.008434844   -0.000319159    0.001249448
     10        1          -0.005879094    0.004728976   -0.007404359
     11        1           0.011839003   -0.000467986   -0.000223545
     12        1          -0.009380438   -0.000202695    0.001134670
     13        1           0.009404059    0.000285593   -0.001274215
     14        1          -0.009404555   -0.000285471    0.001273362
     15        1           0.009382490    0.000203696   -0.001134660
     16        1          -0.011836072    0.000466622    0.000220925
     17        1           0.005879219   -0.004728395    0.007406465
     18        1           0.008431809    0.000319376   -0.001247259
 -------------------------------------------------------------------
 Cartesian Forces:  Max     0.023155966 RMS     0.008905910

 GradGradGradGradGradGradGradGradGradGradGradGradGradGradGradGradGradGrad
 Berny optimization.
 FormGI is forming the generalized inverse of G from B-inverse, IUseBI=4.
 Internal  Forces:  Max     0.033036497 RMS     0.009109245
 Search for a local minimum.
 Step number   1 out of a maximum of   79
 All quantities printed in internal units (Hartrees-Bohrs-Radians)
 Mixed Optimization -- RFO/linear search
 Second derivative matrix not updated -- first step.
 ITU=  0
     Eigenvalues ---    0.01060   0.01067   0.01067   0.01979   0.01979
     Eigenvalues ---    0.01983   0.01983   0.01999   0.01999   0.02889
     Eigenvalues ---    0.02889   0.02949   0.02949   0.02949   0.02949
     Eigenvalues ---    0.16000   0.16000   0.16000   0.16000   0.16000
     Eigenvalues ---    0.16000   0.16000   0.16000   0.16000   0.16000
     Eigenvalues ---    0.22000   0.22000   0.22000   0.22000   0.22000
     Eigenvalues ---    0.22000   0.34825   0.34885   0.34885   0.35079
     Eigenvalues ---    0.35079   0.35080   0.35080   0.35192   0.35192
     Eigenvalues ---    0.35273   0.35273   0.35370   0.35371   0.57310
     Eigenvalues ---    0.57310   0.58344   0.58345
 RFO step:  Lambda=-1.57885707D-02 EMin= 1.05982815D-02
 Linear search not attempted -- first point.
 Iteration  1 RMS(Cart)=  0.08342652 RMS(Int)=  0.00051320
 Iteration  2 RMS(Cart)=  0.00074204 RMS(Int)=  0.00000014
 Iteration  3 RMS(Cart)=  0.00000033 RMS(Int)=  0.00000009
 Variable       Old X    -DE/DX   Delta X   Delta X   Delta X     New X
                                 (Linear)    (Quad)   (Total)
    R1        2.52275   0.02140   0.00000   0.03572   0.03572   2.55846
    R2        2.05234   0.00787   0.00000   0.02136   0.02136   2.07370
    R3        2.05078   0.00900   0.00000   0.02436   0.02436   2.07513
    R4        2.79162   0.00462   0.00000   0.01268   0.01268   2.80430
    R5        2.05364   0.00988   0.00000   0.02688   0.02688   2.08051
    R6        2.53135   0.03304   0.00000   0.05610   0.05610   2.58745
    R7        2.05547   0.00849   0.00000   0.02316   0.02316   2.07863
    R8        2.79261   0.00081   0.00000   0.00224   0.00224   2.79484
    R9        2.05545   0.00860   0.00000   0.02345   0.02345   2.07890
   R10        2.53135   0.03304   0.00000   0.05610   0.05610   2.58745
   R11        2.05545   0.00860   0.00000   0.02345   0.02345   2.07890
   R12        2.79162   0.00462   0.00000   0.01268   0.01268   2.80430
   R13        2.05546   0.00849   0.00000   0.02317   0.02317   2.07863
   R14        2.52275   0.02140   0.00000   0.03571   0.03571   2.55846
   R15        2.05365   0.00988   0.00000   0.02687   0.02687   2.08051
   R16        2.05077   0.00900   0.00000   0.02436   0.02436   2.07513
   R17        2.05234   0.00787   0.00000   0.02135   0.02135   2.07370
    A1        2.11522   0.00071   0.00000   0.00404   0.00404   2.11926
    A2        2.09390   0.00533   0.00000   0.03033   0.03033   2.12423
    A3        2.07407  -0.00604   0.00000  -0.03437  -0.03437   2.03970
    A4        2.11447   0.01173   0.00000   0.04974   0.04974   2.16420
    A5        2.07578   0.00085   0.00000   0.01334   0.01334   2.08912
    A6        2.09294  -0.01258   0.00000  -0.06308  -0.06308   2.02986
    A7        2.11092   0.01256   0.00000   0.05325   0.05325   2.16417
    A8        2.08108  -0.01054   0.00000  -0.05088  -0.05088   2.03020
    A9        2.09118  -0.00201   0.00000  -0.00237  -0.00237   2.08881
   A10        2.11135   0.01254   0.00000   0.05318   0.05318   2.16453
   A11        2.09031  -0.00213   0.00000  -0.00302  -0.00302   2.08729
   A12        2.08153  -0.01041   0.00000  -0.05017  -0.05017   2.03136
   A13        2.11136   0.01254   0.00000   0.05318   0.05318   2.16453
   A14        2.08153  -0.01041   0.00000  -0.05017  -0.05017   2.03136
   A15        2.09030  -0.00212   0.00000  -0.00301  -0.00301   2.08729
   A16        2.11093   0.01255   0.00000   0.05325   0.05325   2.16417
   A17        2.09117  -0.00201   0.00000  -0.00236  -0.00236   2.08881
   A18        2.08109  -0.01054   0.00000  -0.05088  -0.05088   2.03020
   A19        2.11447   0.01173   0.00000   0.04974   0.04974   2.16420
   A20        2.09293  -0.01258   0.00000  -0.06307  -0.06307   2.02986
   A21        2.07579   0.00085   0.00000   0.01334   0.01334   2.08912
   A22        2.09390   0.00533   0.00000   0.03033   0.03033   2.12423
   A23        2.11522   0.00071   0.00000   0.00404   0.00404   2.11925
   A24        2.07407  -0.00604   0.00000  -0.03437  -0.03437   2.03970
    D1       -0.00002   0.00000   0.00000   0.00001   0.00001  -0.00001
    D2       -3.14158   0.00000   0.00000  -0.00001  -0.00001  -3.14159
    D3        3.14159   0.00000   0.00000   0.00000   0.00000   3.14159
    D4        0.00002   0.00000   0.00000  -0.00001  -0.00001   0.00001
    D5       -3.14154   0.00000   0.00000  -0.00002  -0.00002  -3.14156
    D6        0.00006   0.00000   0.00000  -0.00002  -0.00002   0.00003
    D7        0.00003   0.00000   0.00000   0.00000   0.00000   0.00003
    D8       -3.14156   0.00000   0.00000   0.00000   0.00000  -3.14157
    D9        3.14159   0.00000   0.00000  -0.00001  -0.00001   3.14158
   D10        0.00000   0.00000   0.00000  -0.00001  -0.00001   0.00000
   D11        0.00000   0.00000   0.00000   0.00000   0.00000  -0.00001
   D12       -3.14159   0.00000   0.00000   0.00000   0.00000   3.14159
   D13       -3.14152   0.00000   0.00000  -0.00003  -0.00003  -3.14154
   D14        0.00005   0.00000   0.00000  -0.00001  -0.00001   0.00004
   D15        0.00007   0.00000   0.00000  -0.00003  -0.00003   0.00004
   D16       -3.14155   0.00000   0.00000  -0.00001  -0.00001  -3.14156
   D17        3.14158   0.00000   0.00000   0.00001   0.00001   3.14158
   D18       -0.00001   0.00000   0.00000   0.00000   0.00000  -0.00001
   D19        0.00001   0.00000   0.00000  -0.00001  -0.00001   0.00000
   D20       -3.14158   0.00000   0.00000  -0.00001  -0.00001  -3.14159
   D21       -3.14154   0.00000   0.00000  -0.00002  -0.00002  -3.14156
   D22        0.00004   0.00000   0.00000  -0.00001  -0.00001   0.00003
   D23        0.00005   0.00000   0.00000  -0.00002  -0.00002   0.00003
   D24       -3.14156   0.00000   0.00000   0.00000  -0.00001  -3.14157
   D25        3.14159   0.00000   0.00000   0.00000   0.00000   3.14159
   D26       -0.00001   0.00000   0.00000   0.00000   0.00000  -0.00001
   D27        0.00001   0.00000   0.00000  -0.00001  -0.00001   0.00000
   D28       -3.14158   0.00000   0.00000  -0.00001  -0.00001  -3.14159
         Item               Value     Threshold  Converged?
 Maximum Force            0.033036     0.000015     NO 
 RMS     Force            0.009109     0.000010     NO 
 Maximum Displacement     0.176985     0.000060     NO 
 RMS     Displacement     0.082984     0.000040     NO 
 Predicted change in Energy=-8.320198D-03
 GradGradGradGradGradGradGradGradGradGradGradGradGradGradGradGradGradGrad

                          Input orientation:                          
 ---------------------------------------------------------------------
 Center     Atomic      Atomic             Coordinates (Angstroms)
 Number     Number       Type             X           Y           Z
 ---------------------------------------------------------------------
      1          6           0        1.298474    1.062706   -0.635930
      2          6           0        2.478856    0.679155   -0.095021
      3          6           0        2.602164   -0.084722    1.171256
      4          6           0        3.795939   -0.472565    1.718283
      5          6           0        3.919360   -1.233853    2.980247
      6          6           0        5.113138   -1.621648    3.527304
      7          6           0        5.236447   -2.385506    4.793593
      8          6           0        6.416834   -2.768939    5.334572
      9          1           0        0.342852    0.822301   -0.153046
     10          1           0        1.250988    1.627753   -1.576311
     11          1           0        3.420944    0.935693   -0.603719
     12          1           0        1.661122   -0.341222    1.679752
     13          1           0        4.736237   -0.215265    1.208512
     14          1           0        2.979061   -1.491184    3.490000
     15          1           0        6.054182   -1.365118    3.018826
     16          1           0        4.294355   -2.642119    5.302245
     17          1           0        6.464320   -3.333971    6.274963
     18          1           0        7.372459   -2.528456    4.851735
 ---------------------------------------------------------------------
                    Distance matrix (angstroms):
                    1          2          3          4          5
     1  C    0.000000
     2  C    1.353881   0.000000
     3  C    2.506416   1.483972   0.000000
     4  C    3.759882   2.519770   1.369219   0.000000
     5  C    5.021948   3.897683   2.515543   1.478967   0.000000
     6  C    6.252194   5.035313   3.770688   2.515543   1.369219
     7  C    7.541718   6.394920   5.035313   3.897683   2.519770
     8  C    8.747914   7.541718   6.252193   5.021948   3.759881
     9  H    1.097353   2.141581   2.771454   4.135501   5.180416
    10  H    1.098112   2.145161   3.508187   4.662882   6.005932
    11  H    2.126511   1.100961   2.205036   2.741443   4.219024
    12  H    2.732198   2.204468   1.099964   2.139201   2.754582
    13  H    4.105289   2.755896   2.138387   1.100105   2.200875
    14  H    5.135175   4.220540   2.738021   2.200876   1.100105
    15  H    6.470574   5.163144   4.119388   2.754582   2.139201
    16  H    7.613340   6.592222   5.144790   4.219024   2.741443
    17  H    9.683861   8.518557   7.177861   6.005933   4.662882
    18  H    8.938915   7.662018   6.501806   5.180415   4.135499
                    6          7          8          9         10
     6  C    0.000000
     7  C    1.483971   0.000000
     8  C    2.506415   1.353881   0.000000
     9  H    6.501807   7.662019   8.938916   0.000000
    10  H    7.177861   8.518556   9.683861   1.870601   0.000000
    11  H    5.144790   6.592222   7.613341   3.112975   2.476608
    12  H    4.119388   5.163143   6.470573   2.539837   3.827142
    13  H    2.738021   4.220540   5.135175   4.715106   4.826895
    14  H    2.138386   2.755895   4.105287   5.057035   6.195282
    15  H    1.099965   2.204468   2.732199   6.889475   7.289940
    16  H    2.205036   1.100960   2.126510   7.574747   8.649187
    17  H    3.508187   2.145161   1.098113   9.801340  10.650823
    18  H    2.771453   2.141580   1.097352   9.256932   9.801340
                   11         12         13         14         15
    11  H    0.000000
    12  H    3.153050   0.000000
    13  H    2.517714   3.113562   0.000000
    14  H    4.779491   2.517216   3.149734   0.000000
    15  H    5.034929   4.705365   2.517216   3.113562   0.000000
    16  H    6.960173   5.034928   4.779490   2.517714   3.153050
    17  H    8.649187   7.289940   6.195282   4.826895   3.827143
    18  H    7.574747   6.889473   5.057034   4.715104   2.539836
                   16         17         18
    16  H    0.000000
    17  H    2.476608   0.000000
    18  H    3.112973   1.870601   0.000000
 Stoichiometry    C8H10
 Framework group  C1[X(C8H10)]
 Deg. of freedom    48
 Full point group                 C1      NOp   1
 Largest Abelian subgroup         C1      NOp   1
 Largest concise Abelian subgroup C1      NOp   1
                         Standard orientation:                         
 ---------------------------------------------------------------------
 Center     Atomic      Atomic             Coordinates (Angstroms)
 Number     Number       Type             X           Y           Z
 ---------------------------------------------------------------------
      1          6           0        4.369151    0.204990    0.000062
      2          6           0        3.169432   -0.422439   -0.000007
      3          6           0        1.863955    0.283184   -0.000019
      4          6           0        0.650663   -0.351389   -0.000046
      5          6           0       -0.650663    0.351388   -0.000047
      6          6           0       -1.863956   -0.283184   -0.000018
      7          6           0       -3.169431    0.422439   -0.000007
      8          6           0       -4.369151   -0.204989    0.000061
      9          1           0        4.442177    1.299911    0.000107
     10          1           0        5.313543   -0.355344    0.000071
     11          1           0        3.129294   -1.522669   -0.000051
     12          1           0        1.903681    1.382430   -0.000001
     13          1           0        0.612605   -1.450835   -0.000065
     14          1           0       -0.612605    1.450834   -0.000064
     15          1           0       -1.903681   -1.382431   -0.000001
     16          1           0       -3.129294    1.522668   -0.000051
     17          1           0       -5.313543    0.355345    0.000071
     18          1           0       -4.442176   -1.299909    0.000107
 ---------------------------------------------------------------------
 Rotational constants (GHZ):     18.9957438      0.5509624      0.5354324
 Standard basis: STO-3G (5D, 7F)
 There are    50 symmetry adapted cartesian basis functions of A   symmetry.
 There are    50 symmetry adapted basis functions of A   symmetry.
    50 basis functions,   150 primitive gaussians,    50 cartesian basis functions
    29 alpha electrons       29 beta electrons
       nuclear repulsion energy       292.9482724451 Hartrees.
 NAtoms=   18 NActive=   18 NUniq=   18 SFac= 1.00D+00 NAtFMM=   60 NAOKFM=F Big=F
 Integral buffers will be    131072 words long.
 Raffenetti 2 integral format.
 Two-electron integral symmetry is turned on.
 One-electron integrals computed using PRISM.
 NBasis=    50 RedAO= T EigKep=  1.96D-01  NBF=    50
 NBsUse=    50 1.00D-06 EigRej= -1.00D+00 NBFU=    50
 Initial guess from the checkpoint file:  "/data/scratch/Gau-51401.chk"
 B after Tr=     0.000000    0.000000    0.000000
         Rot=    0.999999    0.000000    0.000000    0.001084 Ang=   0.12 deg.
 ExpMin= 1.69D-01 ExpMax= 7.16D+01 ExpMxC= 7.16D+01 IAcc=1 IRadAn=         1 AccDes= 0.00D+00
 Harris functional with IExCor=  402 and IRadAn=       1 diagonalized for initial guess.
 HarFok:  IExCor=  402 AccDes= 0.00D+00 IRadAn=         1 IDoV= 1 UseB2=F ITyADJ=14
 ICtDFT=  3500011 ScaDFX=  1.000000  1.000000  1.000000  1.000000
 FoFCou: FMM=F IPFlag=           0 FMFlag=      100000 FMFlg1=           0
         NFxFlg=           0 DoJE=T BraDBF=F KetDBF=T FulRan=T
         wScrn=  0.000000 ICntrl=     500 IOpCl=  0 I1Cent=   200000004 NGrid=           0
         NMat0=    1 NMatS0=      1 NMatT0=    0 NMatD0=    1 NMtDS0=    0 NMtDT0=    0
 Petite list used in FoFCou.
 Keep R1 ints in memory in canonical form, NReq=1710030.
 Requested convergence on RMS density matrix=1.00D-08 within 128 cycles.
 Requested convergence on MAX density matrix=1.00D-06.
 Requested convergence on             energy=1.00D-06.
 No special actions if energy rises.
 Integral accuracy reduced to 1.0D-05 until final iterations.
 Initial convergence to 1.0D-05 achieved.  Increase integral accuracy.
 SCF Done:  E(RB3LYP) =  -306.988230988     A.U. after   11 cycles
            NFock= 11  Conv=0.52D-08     -V/T= 2.0168
 Calling FoFJK, ICntrl=      2127 FMM=F ISym2X=0 I1Cent= 0 IOpClX= 0 NMat=1 NMatS=1 NMatT=0.
 ***** Axes restored to original set *****
 -------------------------------------------------------------------
 Center     Atomic                   Forces (Hartrees/Bohr)
 Number     Number              X              Y              Z
 -------------------------------------------------------------------
      1        6           0.006435836   -0.001921486    0.002664414
      2        6          -0.004591528   -0.000085880    0.000533771
      3        6           0.005751178    0.000271690   -0.000942522
      4        6          -0.004955119   -0.001178301    0.002389043
      5        6           0.004955173    0.001178076   -0.002388695
      6        6          -0.005750972   -0.000272317    0.000941100
      7        6           0.004591644    0.000086803   -0.000533098
      8        6          -0.006436081    0.001919744   -0.002664798
      9        1           0.000060741    0.000358481   -0.000604200
     10        1          -0.000255030   -0.000804907    0.001367113
     11        1          -0.000220727   -0.000194740    0.000344444
     12        1           0.000146483   -0.000365173    0.000598509
     13        1          -0.000195686    0.000381708   -0.000620604
     14        1           0.000195740   -0.000381009    0.000620845
     15        1          -0.000146797    0.000365552   -0.000597950
     16        1           0.000220275    0.000194900   -0.000344104
     17        1           0.000255009    0.000805165   -0.001367321
     18        1          -0.000060138   -0.000358308    0.000604051
 -------------------------------------------------------------------
 Cartesian Forces:  Max     0.006436081 RMS     0.002306478

 GradGradGradGradGradGradGradGradGradGradGradGradGradGradGradGradGradGrad
 Berny optimization.
 Using GEDIIS/GDIIS optimizer.
 FormGI is forming the generalized inverse of G from B-inverse, IUseBI=4.
 Internal  Forces:  Max     0.008742768 RMS     0.002360015
 Search for a local minimum.
 Step number   2 out of a maximum of   79
 All quantities printed in internal units (Hartrees-Bohrs-Radians)
 Mixed Optimization -- RFO/linear search
 Update second derivatives using D2CorX and points    1    2
 DE= -6.63D-03 DEPred=-8.32D-03 R= 7.97D-01
 TightC=F SS=  1.41D+00  RLast= 2.32D-01 DXNew= 5.0454D-01 6.9683D-01
 Trust test= 7.97D-01 RLast= 2.32D-01 DXMaxT set to 5.05D-01
 ITU=  1  0
 Use linear search instead of GDIIS.
     Eigenvalues ---    0.01060   0.01067   0.01067   0.02001   0.02001
     Eigenvalues ---    0.02006   0.02006   0.02037   0.02037   0.02889
     Eigenvalues ---    0.02889   0.02949   0.02949   0.02949   0.02949
     Eigenvalues ---    0.15738   0.16000   0.16000   0.16000   0.16000
     Eigenvalues ---    0.16000   0.16000   0.16000   0.16000   0.16230
     Eigenvalues ---    0.21945   0.22000   0.22000   0.22000   0.22000
     Eigenvalues ---    0.22284   0.33952   0.34862   0.34885   0.35079
     Eigenvalues ---    0.35080   0.35080   0.35135   0.35192   0.35242
     Eigenvalues ---    0.35273   0.35321   0.35371   0.36746   0.57310
     Eigenvalues ---    0.57873   0.58345   0.67923
 RFO step:  Lambda=-3.84696848D-04 EMin= 1.05982815D-02
 Quartic linear search produced a step of -0.12851.
 Iteration  1 RMS(Cart)=  0.01621446 RMS(Int)=  0.00000637
 Iteration  2 RMS(Cart)=  0.00000878 RMS(Int)=  0.00000001
 Iteration  3 RMS(Cart)=  0.00000000 RMS(Int)=  0.00000001
 Variable       Old X    -DE/DX   Delta X   Delta X   Delta X     New X
                                 (Linear)    (Quad)   (Total)
    R1        2.55846  -0.00748  -0.00459  -0.00576  -0.01035   2.54811
    R2        2.07370  -0.00040  -0.00275   0.00225  -0.00049   2.07321
    R3        2.07513  -0.00158  -0.00313  -0.00019  -0.00332   2.07181
    R4        2.80430  -0.00516  -0.00163  -0.01096  -0.01259   2.79171
    R5        2.08051  -0.00039  -0.00345   0.00309  -0.00037   2.08015
    R6        2.58745  -0.00874  -0.00721  -0.00480  -0.01201   2.57543
    R7        2.07863   0.00024  -0.00298   0.00409   0.00111   2.07975
    R8        2.79484  -0.00690  -0.00029  -0.01690  -0.01719   2.77765
    R9        2.07890   0.00021  -0.00301   0.00406   0.00105   2.07995
   R10        2.58745  -0.00874  -0.00721  -0.00480  -0.01201   2.57543
   R11        2.07890   0.00021  -0.00301   0.00406   0.00105   2.07995
   R12        2.80430  -0.00516  -0.00163  -0.01096  -0.01259   2.79171
   R13        2.07863   0.00024  -0.00298   0.00409   0.00111   2.07975
   R14        2.55846  -0.00748  -0.00459  -0.00576  -0.01035   2.54811
   R15        2.08051  -0.00039  -0.00345   0.00309  -0.00037   2.08015
   R16        2.07513  -0.00158  -0.00313  -0.00019  -0.00332   2.07181
   R17        2.07370  -0.00039  -0.00274   0.00225  -0.00049   2.07321
    A1        2.11926   0.00058  -0.00052   0.00376   0.00324   2.12249
    A2        2.12423   0.00005  -0.00390   0.00485   0.00096   2.12519
    A3        2.03970  -0.00063   0.00442  -0.00861  -0.00419   2.03551
    A4        2.16420  -0.00049  -0.00639   0.00560  -0.00079   2.16341
    A5        2.08912   0.00048  -0.00171   0.00425   0.00253   2.09166
    A6        2.02986   0.00001   0.00811  -0.00985  -0.00174   2.02812
    A7        2.16417  -0.00106  -0.00684   0.00385  -0.00300   2.16118
    A8        2.03020   0.00124   0.00654  -0.00177   0.00477   2.03497
    A9        2.08881  -0.00017   0.00030  -0.00208  -0.00177   2.08704
   A10        2.16453  -0.00099  -0.00683   0.00415  -0.00269   2.16184
   A11        2.08729  -0.00026   0.00039  -0.00260  -0.00222   2.08507
   A12        2.03136   0.00125   0.00645  -0.00154   0.00490   2.03627
   A13        2.16453  -0.00099  -0.00683   0.00415  -0.00269   2.16185
   A14        2.03136   0.00125   0.00645  -0.00154   0.00490   2.03627
   A15        2.08729  -0.00026   0.00039  -0.00260  -0.00221   2.08507
   A16        2.16417  -0.00106  -0.00684   0.00385  -0.00300   2.16118
   A17        2.08881  -0.00017   0.00030  -0.00207  -0.00177   2.08704
   A18        2.03020   0.00124   0.00654  -0.00177   0.00477   2.03497
   A19        2.16420  -0.00049  -0.00639   0.00560  -0.00079   2.16341
   A20        2.02986   0.00001   0.00811  -0.00985  -0.00174   2.02812
   A21        2.08912   0.00048  -0.00171   0.00425   0.00253   2.09166
   A22        2.12423   0.00005  -0.00390   0.00485   0.00096   2.12519
   A23        2.11925   0.00058  -0.00052   0.00376   0.00324   2.12249
   A24        2.03970  -0.00063   0.00442  -0.00861  -0.00419   2.03551
    D1       -0.00001   0.00000   0.00000   0.00001   0.00000   0.00000
    D2       -3.14159   0.00000   0.00000   0.00000   0.00000   3.14159
    D3        3.14159   0.00000   0.00000   0.00000   0.00000   3.14159
    D4        0.00001   0.00000   0.00000  -0.00001   0.00000   0.00000
    D5       -3.14156   0.00000   0.00000  -0.00003  -0.00002  -3.14158
    D6        0.00003   0.00000   0.00000  -0.00002  -0.00002   0.00001
    D7        0.00003   0.00000   0.00000  -0.00002  -0.00002   0.00001
    D8       -3.14157   0.00000   0.00000  -0.00002  -0.00002  -3.14158
    D9        3.14158   0.00000   0.00000   0.00000   0.00000   3.14159
   D10        0.00000   0.00000   0.00000   0.00000   0.00000   0.00000
   D11       -0.00001   0.00000   0.00000   0.00000   0.00000   0.00000
   D12        3.14159   0.00000   0.00000   0.00000   0.00000   3.14159
   D13       -3.14154   0.00000   0.00000  -0.00004  -0.00003  -3.14158
   D14        0.00004   0.00000   0.00000  -0.00003  -0.00003   0.00001
   D15        0.00004   0.00000   0.00000  -0.00003  -0.00003   0.00001
   D16       -3.14156   0.00000   0.00000  -0.00003  -0.00003  -3.14158
   D17        3.14158   0.00000   0.00000   0.00000   0.00000   3.14159
   D18       -0.00001   0.00000   0.00000   0.00000   0.00000   0.00000
   D19        0.00000   0.00000   0.00000   0.00000   0.00000   0.00000
   D20       -3.14159   0.00000   0.00000   0.00000   0.00000   3.14159
   D21       -3.14156   0.00000   0.00000  -0.00002  -0.00002  -3.14158
   D22        0.00003   0.00000   0.00000  -0.00002  -0.00002   0.00001
   D23        0.00003   0.00000   0.00000  -0.00002  -0.00002   0.00001
   D24       -3.14157   0.00000   0.00000  -0.00002  -0.00002  -3.14158
   D25        3.14159   0.00000   0.00000   0.00000   0.00000   3.14159
   D26       -0.00001   0.00000   0.00000   0.00000   0.00000   0.00000
   D27        0.00000   0.00000   0.00000   0.00000   0.00000   0.00000
   D28       -3.14159   0.00000   0.00000   0.00000   0.00000   3.14159
         Item               Value     Threshold  Converged?
 Maximum Force            0.008743     0.000015     NO 
 RMS     Force            0.002360     0.000010     NO 
 Maximum Displacement     0.031328     0.000060     NO 
 RMS     Displacement     0.016209     0.000040     NO 
 Predicted change in Energy=-3.343736D-04
 GradGradGradGradGradGradGradGradGradGradGradGradGradGradGradGradGradGrad

                          Input orientation:                          
 ---------------------------------------------------------------------
 Center     Atomic      Atomic             Coordinates (Angstroms)
 Number     Number       Type             X           Y           Z
 ---------------------------------------------------------------------
      1          6           0        1.311965    1.052999   -0.620917
      2          6           0        2.487163    0.670678   -0.081539
      3          6           0        2.607842   -0.089777    1.179250
      4          6           0        3.797127   -0.474875    1.722105
      5          6           0        3.918175   -1.231489    2.976458
      6          6           0        5.107461   -1.616571    3.519323
      7          6           0        5.228140   -2.377013    4.780120
      8          6           0        6.403340   -2.759292    5.319523
      9          1           0        0.354502    0.814598   -0.141288
     10          1           0        1.264189    1.617145   -1.559772
     11          1           0        3.430871    0.925602   -0.587618
     12          1           0        1.668205   -0.348120    1.690679
     13          1           0        4.735730   -0.215516    1.209064
     14          1           0        2.979571   -1.490855    3.489494
     15          1           0        6.047098   -1.358221    3.007898
     16          1           0        4.284431   -2.631960    5.286185
     17          1           0        6.451116   -3.323426    6.258385
     18          1           0        7.360804   -2.520867    4.839909
 ---------------------------------------------------------------------
                    Distance matrix (angstroms):
                    1          2          3          4          5
     1  C    0.000000
     2  C    1.348402   0.000000
     3  C    2.495163   1.477310   0.000000
     4  C    3.741682   2.506278   1.362861   0.000000
     5  C    4.995231   3.875227   2.500088   1.469871   0.000000
     6  C    6.218841   5.006364   3.749018   2.500088   1.362861
     7  C    7.501508   6.359019   5.006364   3.875227   2.506278
     8  C    8.703132   7.501508   6.218841   4.995231   3.741682
     9  H    1.097093   2.138346   2.763920   4.121485   5.158157
    10  H    1.096353   2.139307   3.495887   4.643602   5.977938
    11  H    2.122994   1.100767   2.197771   2.725858   4.194419
    12  H    2.726448   2.202136   1.100554   2.132923   2.737871
    13  H    4.084132   2.739901   2.131809   1.100661   2.196424
    14  H    5.113471   4.203210   2.727349   2.196424   1.100661
    15  H    6.434576   5.131685   4.096509   2.737871   2.132924
    16  H    7.570227   6.553630   5.112784   4.194419   2.725858
    17  H    9.637882   8.477054   7.143169   5.977938   4.643602
    18  H    8.898404   7.626204   6.473119   5.158157   4.121485
                    6          7          8          9         10
     6  C    0.000000
     7  C    1.477310   0.000000
     8  C    2.495163   1.348402   0.000000
     9  H    6.473119   7.626204   8.898404   0.000000
    10  H    7.143169   8.477054   9.637882   1.866469   0.000000
    11  H    5.112784   6.553630   7.570227   3.110559   2.473424
    12  H    4.096509   5.131685   6.434576   2.536500   3.819807
    13  H    2.727349   4.203210   5.113471   4.698909   4.803821
    14  H    2.131809   2.739900   4.084132   5.038718   6.172300
    15  H    1.100554   2.202136   2.726448   6.858875   7.252078
    16  H    2.197771   1.100767   2.122993   7.535288   8.604875
    17  H    3.495887   2.139307   1.096353   9.759496  10.603633
    18  H    2.763920   2.138346   1.097093   9.220950   9.759496
                   11         12         13         14         15
    11  H    0.000000
    12  H    3.149603   0.000000
    13  H    2.496573   3.107933   0.000000
    14  H    4.760860   2.502251   3.148166   0.000000
    15  H    4.998823   4.682956   2.502251   3.107933   0.000000
    16  H    6.919998   4.998823   4.760860   2.496573   3.149603
    17  H    8.604876   7.252077   6.172300   4.803821   3.819807
    18  H    7.535288   6.858875   5.038718   4.698909   2.536500
                   16         17         18
    16  H    0.000000
    17  H    2.473424   0.000000
    18  H    3.110559   1.866469   0.000000
 Stoichiometry    C8H10
 Framework group  C1[X(C8H10)]
 Deg. of freedom    48
 Full point group                 C1      NOp   1
 Largest Abelian subgroup         C1      NOp   1
 Largest concise Abelian subgroup C1      NOp   1
                         Standard orientation:                         
 ---------------------------------------------------------------------
 Center     Atomic      Atomic             Coordinates (Angstroms)
 Number     Number       Type             X           Y           Z
 ---------------------------------------------------------------------
      1          6           0        4.346813    0.203331    0.000024
      2          6           0        3.151543   -0.420782   -0.000001
      3          6           0        1.852940    0.283545   -0.000009
      4          6           0        0.646265   -0.349959   -0.000018
      5          6           0       -0.646265    0.349959   -0.000018
      6          6           0       -1.852940   -0.283545   -0.000008
      7          6           0       -3.151543    0.420782   -0.000001
      8          6           0       -4.346813   -0.203331    0.000023
      9          1           0        4.424076    1.297700    0.000037
     10          1           0        5.289863   -0.355818    0.000030
     11          1           0        3.107912   -1.520684   -0.000015
     12          1           0        1.889028    1.383507   -0.000005
     13          1           0        0.612337   -1.450097   -0.000023
     14          1           0       -0.612337    1.450097   -0.000023
     15          1           0       -1.889028   -1.383507   -0.000005
     16          1           0       -3.107912    1.520684   -0.000015
     17          1           0       -5.289863    0.355818    0.000030
     18          1           0       -4.424077   -1.297700    0.000037
 ---------------------------------------------------------------------
 Rotational constants (GHZ):     19.0604495      0.5568615      0.5410543
 Standard basis: STO-3G (5D, 7F)
 There are    50 symmetry adapted cartesian basis functions of A   symmetry.
 There are    50 symmetry adapted basis functions of A   symmetry.
    50 basis functions,   150 primitive gaussians,    50 cartesian basis functions
    29 alpha electrons       29 beta electrons
       nuclear repulsion energy       294.1979466770 Hartrees.
 NAtoms=   18 NActive=   18 NUniq=   18 SFac= 1.00D+00 NAtFMM=   60 NAOKFM=F Big=F
 Integral buffers will be    131072 words long.
 Raffenetti 2 integral format.
 Two-electron integral symmetry is turned on.
 One-electron integrals computed using PRISM.
 NBasis=    50 RedAO= T EigKep=  1.94D-01  NBF=    50
 NBsUse=    50 1.00D-06 EigRej= -1.00D+00 NBFU=    50
 Initial guess from the checkpoint file:  "/data/scratch/Gau-51401.chk"
 B after Tr=     0.000000    0.000000    0.000000
         Rot=    1.000000    0.000000    0.000000    0.000022 Ang=   0.00 deg.
 ExpMin= 1.69D-01 ExpMax= 7.16D+01 ExpMxC= 7.16D+01 IAcc=1 IRadAn=         1 AccDes= 0.00D+00
 Harris functional with IExCor=  402 and IRadAn=       1 diagonalized for initial guess.
 HarFok:  IExCor=  402 AccDes= 0.00D+00 IRadAn=         1 IDoV= 1 UseB2=F ITyADJ=14
 ICtDFT=  3500011 ScaDFX=  1.000000  1.000000  1.000000  1.000000
 FoFCou: FMM=F IPFlag=           0 FMFlag=      100000 FMFlg1=           0
         NFxFlg=           0 DoJE=T BraDBF=F KetDBF=T FulRan=T
         wScrn=  0.000000 ICntrl=     500 IOpCl=  0 I1Cent=   200000004 NGrid=           0
         NMat0=    1 NMatS0=      1 NMatT0=    0 NMatD0=    1 NMtDS0=    0 NMtDT0=    0
 Petite list used in FoFCou.
 Keep R1 ints in memory in canonical form, NReq=1710030.
 Requested convergence on RMS density matrix=1.00D-08 within 128 cycles.
 Requested convergence on MAX density matrix=1.00D-06.
 Requested convergence on             energy=1.00D-06.
 No special actions if energy rises.
 Integral accuracy reduced to 1.0D-05 until final iterations.
 Initial convergence to 1.0D-05 achieved.  Increase integral accuracy.
 SCF Done:  E(RB3LYP) =  -306.988573418     A.U. after   10 cycles
            NFock= 10  Conv=0.86D-08     -V/T= 2.0166
 Calling FoFJK, ICntrl=      2127 FMM=F ISym2X=0 I1Cent= 0 IOpClX= 0 NMat=1 NMatS=1 NMatT=0.
 ***** Axes restored to original set *****
 -------------------------------------------------------------------
 Center     Atomic                   Forces (Hartrees/Bohr)
 Number     Number              X              Y              Z
 -------------------------------------------------------------------
      1        6           0.000508173   -0.000086709    0.000101589
      2        6          -0.000157325    0.000195800   -0.000313994
      3        6          -0.000057215    0.000015427   -0.000021176
      4        6           0.000016155   -0.000016255    0.000025612
      5        6          -0.000016116    0.000016025   -0.000025674
      6        6           0.000057179   -0.000015592    0.000020937
      7        6           0.000157342   -0.000195847    0.000313970
      8        6          -0.000508197    0.000086435   -0.000101707
      9        1           0.000095848    0.000141699   -0.000244894
     10        1          -0.000228001   -0.000057579    0.000115531
     11        1          -0.000286152   -0.000060679    0.000125875
     12        1           0.000410085   -0.000027698    0.000011814
     13        1          -0.000420712    0.000023377   -0.000003142
     14        1           0.000420724   -0.000023116    0.000003280
     15        1          -0.000410104    0.000027925   -0.000011638
     16        1           0.000286096    0.000060852   -0.000125747
     17        1           0.000228008    0.000057567   -0.000115554
     18        1          -0.000095788   -0.000141631    0.000244917
 -------------------------------------------------------------------
 Cartesian Forces:  Max     0.000508197 RMS     0.000197091

 GradGradGradGradGradGradGradGradGradGradGradGradGradGradGradGradGradGrad
 Berny optimization.
 Using GEDIIS/GDIIS optimizer.
 FormGI is forming the generalized inverse of G from B-inverse, IUseBI=4.
 Internal  Forces:  Max     0.000373192 RMS     0.000186221
 Search for a local minimum.
 Step number   3 out of a maximum of   79
 All quantities printed in internal units (Hartrees-Bohrs-Radians)
 Mixed Optimization -- En-DIIS/RFO-DIIS
 Update second derivatives using D2CorX and points    1    2    3
 DE= -3.42D-04 DEPred=-3.34D-04 R= 1.02D+00
 TightC=F SS=  1.41D+00  RLast= 3.69D-02 DXNew= 8.4853D-01 1.1076D-01
 Trust test= 1.02D+00 RLast= 3.69D-02 DXMaxT set to 5.05D-01
 ITU=  1  1  0
 Use linear search instead of GDIIS.
     Eigenvalues ---    0.01060   0.01067   0.01067   0.01998   0.01998
     Eigenvalues ---    0.02003   0.02003   0.02040   0.02040   0.02889
     Eigenvalues ---    0.02889   0.02949   0.02949   0.02949   0.02949
     Eigenvalues ---    0.15313   0.16000   0.16000   0.16000   0.16000
     Eigenvalues ---    0.16000   0.16000   0.16000   0.16025   0.16189
     Eigenvalues ---    0.21844   0.22000   0.22000   0.22000   0.22005
     Eigenvalues ---    0.22237   0.34812   0.34885   0.35071   0.35079
     Eigenvalues ---    0.35080   0.35080   0.35190   0.35192   0.35267
     Eigenvalues ---    0.35273   0.35327   0.35371   0.37430   0.57310
     Eigenvalues ---    0.57850   0.58345   0.66057
 RFO step:  Lambda=-9.92338691D-06 EMin= 1.05982812D-02
 Quartic linear search produced a step of  0.00834.
 Iteration  1 RMS(Cart)=  0.00179395 RMS(Int)=  0.00000128
 Iteration  2 RMS(Cart)=  0.00000162 RMS(Int)=  0.00000000
 Iteration  3 RMS(Cart)=  0.00000000 RMS(Int)=  0.00000000
 Variable       Old X    -DE/DX   Delta X   Delta X   Delta X     New X
                                 (Linear)    (Quad)   (Total)
    R1        2.54811  -0.00031  -0.00009  -0.00058  -0.00067   2.54744
    R2        2.07321  -0.00022   0.00000  -0.00061  -0.00062   2.07259
    R3        2.07181  -0.00012  -0.00003  -0.00034  -0.00037   2.07144
    R4        2.79171   0.00025  -0.00011   0.00066   0.00056   2.79227
    R5        2.08015  -0.00032   0.00000  -0.00089  -0.00090   2.07925
    R6        2.57543  -0.00012  -0.00010  -0.00025  -0.00035   2.57509
    R7        2.07975  -0.00034   0.00001  -0.00094  -0.00094   2.07881
    R8        2.77765   0.00024  -0.00014   0.00060   0.00045   2.77811
    R9        2.07995  -0.00035   0.00001  -0.00099  -0.00098   2.07897
   R10        2.57543  -0.00012  -0.00010  -0.00025  -0.00035   2.57509
   R11        2.07995  -0.00035   0.00001  -0.00099  -0.00098   2.07897
   R12        2.79171   0.00025  -0.00010   0.00066   0.00056   2.79227
   R13        2.07975  -0.00034   0.00001  -0.00094  -0.00094   2.07881
   R14        2.54811  -0.00031  -0.00009  -0.00058  -0.00067   2.54744
   R15        2.08015  -0.00032   0.00000  -0.00089  -0.00090   2.07925
   R16        2.07181  -0.00012  -0.00003  -0.00034  -0.00037   2.07144
   R17        2.07321  -0.00022   0.00000  -0.00061  -0.00062   2.07259
    A1        2.12249   0.00011   0.00003   0.00074   0.00076   2.12326
    A2        2.12519   0.00019   0.00001   0.00121   0.00122   2.12641
    A3        2.03551  -0.00030  -0.00003  -0.00195  -0.00198   2.03352
    A4        2.16341   0.00027  -0.00001   0.00125   0.00125   2.16466
    A5        2.09166  -0.00016   0.00002  -0.00077  -0.00075   2.09091
    A6        2.02812  -0.00010  -0.00001  -0.00049  -0.00050   2.02762
    A7        2.16118   0.00002  -0.00002   0.00010   0.00008   2.16126
    A8        2.03497   0.00024   0.00004   0.00149   0.00153   2.03649
    A9        2.08704  -0.00025  -0.00001  -0.00159  -0.00160   2.08544
   A10        2.16184   0.00026  -0.00002   0.00123   0.00120   2.16305
   A11        2.08507  -0.00037  -0.00002  -0.00214  -0.00216   2.08291
   A12        2.03627   0.00011   0.00004   0.00091   0.00095   2.03722
   A13        2.16185   0.00026  -0.00002   0.00123   0.00120   2.16305
   A14        2.03627   0.00011   0.00004   0.00091   0.00095   2.03722
   A15        2.08507  -0.00037  -0.00002  -0.00214  -0.00216   2.08291
   A16        2.16118   0.00002  -0.00002   0.00010   0.00008   2.16126
   A17        2.08704  -0.00025  -0.00001  -0.00159  -0.00160   2.08544
   A18        2.03497   0.00024   0.00004   0.00149   0.00153   2.03649
   A19        2.16341   0.00027  -0.00001   0.00125   0.00125   2.16466
   A20        2.02812  -0.00010  -0.00001  -0.00049  -0.00050   2.02762
   A21        2.09166  -0.00016   0.00002  -0.00077  -0.00075   2.09091
   A22        2.12519   0.00019   0.00001   0.00121   0.00122   2.12641
   A23        2.12249   0.00011   0.00003   0.00074   0.00076   2.12326
   A24        2.03551  -0.00030  -0.00003  -0.00195  -0.00198   2.03352
    D1        0.00000   0.00000   0.00000   0.00000   0.00000   0.00000
    D2        3.14159   0.00000   0.00000   0.00000   0.00000   3.14159
    D3        3.14159   0.00000   0.00000   0.00000   0.00000   3.14159
    D4        0.00000   0.00000   0.00000   0.00000   0.00000   0.00000
    D5       -3.14158   0.00000   0.00000  -0.00001  -0.00001  -3.14159
    D6        0.00001   0.00000   0.00000  -0.00001  -0.00001   0.00000
    D7        0.00001   0.00000   0.00000  -0.00001  -0.00001   0.00000
    D8       -3.14158   0.00000   0.00000  -0.00001  -0.00001  -3.14159
    D9        3.14159   0.00000   0.00000   0.00000   0.00000   3.14159
   D10        0.00000   0.00000   0.00000   0.00000   0.00000   0.00000
   D11        0.00000   0.00000   0.00000   0.00000   0.00000   0.00000
   D12        3.14159   0.00000   0.00000   0.00000   0.00000   3.14159
   D13       -3.14158   0.00000   0.00000  -0.00001  -0.00001  -3.14159
   D14        0.00001   0.00000   0.00000  -0.00001  -0.00001   0.00000
   D15        0.00001   0.00000   0.00000  -0.00001  -0.00001   0.00000
   D16       -3.14158   0.00000   0.00000  -0.00001  -0.00001  -3.14159
   D17        3.14159   0.00000   0.00000   0.00000   0.00000   3.14159
   D18        0.00000   0.00000   0.00000   0.00000   0.00000   0.00000
   D19        0.00000   0.00000   0.00000   0.00000   0.00000   0.00000
   D20        3.14159   0.00000   0.00000   0.00000   0.00000   3.14159
   D21       -3.14158   0.00000   0.00000  -0.00001  -0.00001  -3.14159
   D22        0.00001   0.00000   0.00000  -0.00001  -0.00001   0.00000
   D23        0.00001   0.00000   0.00000  -0.00001  -0.00001   0.00000
   D24       -3.14158   0.00000   0.00000  -0.00001  -0.00001  -3.14159
   D25        3.14159   0.00000   0.00000   0.00000   0.00000   3.14159
   D26        0.00000   0.00000   0.00000   0.00000   0.00000   0.00000
   D27        0.00000   0.00000   0.00000   0.00000   0.00000   0.00000
   D28        3.14159   0.00000   0.00000   0.00000   0.00000  -3.14159
         Item               Value     Threshold  Converged?
 Maximum Force            0.000373     0.000015     NO 
 RMS     Force            0.000186     0.000010     NO 
 Maximum Displacement     0.005378     0.000060     NO 
 RMS     Displacement     0.001793     0.000040     NO 
 Predicted change in Energy=-4.988784D-06
 GradGradGradGradGradGradGradGradGradGradGradGradGradGradGradGradGradGrad

                          Input orientation:                          
 ---------------------------------------------------------------------
 Center     Atomic      Atomic             Coordinates (Angstroms)
 Number     Number       Type             X           Y           Z
 ---------------------------------------------------------------------
      1          6           0        1.312036    1.053673   -0.622080
      2          6           0        2.486181    0.670814   -0.081678
      3          6           0        2.607057   -0.089788    1.179351
      4          6           0        3.796207   -0.474805    1.722096
      5          6           0        3.919096   -1.231533    2.976483
      6          6           0        5.108246   -1.616546    3.519231
      7          6           0        5.229123   -2.377144    4.780261
      8          6           0        6.403268   -2.759993    5.320670
      9          1           0        0.353850    0.816303   -0.144134
     10          1           0        1.264171    1.617715   -1.560763
     11          1           0        3.429698    0.925444   -0.587228
     12          1           0        1.668781   -0.348845    1.691852
     13          1           0        4.733109   -0.214460    1.207557
     14          1           0        2.982194   -1.491880    3.491021
     15          1           0        6.046522   -1.357489    3.006730
     16          1           0        4.285605   -2.631779    5.285809
     17          1           0        6.451133   -3.324030    6.259355
     18          1           0        7.361454   -2.522618    4.842727
 ---------------------------------------------------------------------
                    Distance matrix (angstroms):
                    1          2          3          4          5
     1  C    0.000000
     2  C    1.348047   0.000000
     3  C    2.495944   1.477606   0.000000
     4  C    3.741993   2.506434   1.362677   0.000000
     5  C    4.996857   3.876147   2.500942   1.470111   0.000000
     6  C    6.220268   5.007373   3.749930   2.500942   1.362677
     7  C    7.503291   6.360207   5.007373   3.876147   2.506434
     8  C    8.705227   7.503291   6.220268   4.996857   3.741993
     9  H    1.096766   2.138200   2.765782   4.123057   5.161672
    10  H    1.096157   2.139538   3.496732   4.644030   5.979418
    11  H    2.121827   1.100292   2.197324   2.725436   4.194293
    12  H    2.729214   2.203010   1.100059   2.131366   2.737395
    13  H    4.081602   2.737613   2.129891   1.100143   2.196851
    14  H    5.117310   4.205645   2.729544   2.196851   1.100143
    15  H    6.434075   5.131111   4.095888   2.737395   2.131366
    16  H    7.571514   6.554003   5.112948   4.194293   2.725436
    17  H    9.639957   8.478699   7.144487   5.979418   4.644030
    18  H    8.902215   7.629945   6.476363   5.161672   4.123057
                    6          7          8          9         10
     6  C    0.000000
     7  C    1.477606   0.000000
     8  C    2.495944   1.348047   0.000000
     9  H    6.476363   7.629945   8.902215   0.000000
    10  H    7.144487   8.478699   9.639957   1.864881   0.000000
    11  H    5.112948   6.554003   7.571514   3.109514   2.473159
    12  H    4.095888   5.131111   6.434075   2.541153   3.822378
    13  H    2.729544   4.205645   5.117310   4.697600   4.801457
    14  H    2.129891   2.737613   4.081602   5.044824   6.175897
    15  H    1.100059   2.203010   2.729214   6.860016   7.251531
    16  H    2.197324   1.100292   2.121827   7.538716   8.605975
    17  H    3.496732   2.139538   1.096157   9.763396  10.605644
    18  H    2.765783   2.138200   1.096766   9.226250   9.763396
                   11         12         13         14         15
    11  H    0.000000
    12  H    3.149420   0.000000
    13  H    2.493896   3.105271   0.000000
    14  H    4.761914   2.503715   3.148288   0.000000
    15  H    4.997607   4.680906   2.503715   3.105271   0.000000
    16  H    6.919463   4.997607   4.761914   2.493896   3.149420
    17  H    8.605975   7.251531   6.175897   4.801457   3.822378
    18  H    7.538717   6.860016   5.044824   4.697600   2.541153
                   16         17         18
    16  H    0.000000
    17  H    2.473159   0.000000
    18  H    3.109514   1.864881   0.000000
 Stoichiometry    C8H10
 Framework group  C1[X(C8H10)]
 Deg. of freedom    48
 Full point group                 C1      NOp   1
 Largest Abelian subgroup         C1      NOp   1
 Largest concise Abelian subgroup C1      NOp   1
                         Standard orientation:                         
 ---------------------------------------------------------------------
 Center     Atomic      Atomic             Coordinates (Angstroms)
 Number     Number       Type             X           Y           Z
 ---------------------------------------------------------------------
      1          6           0        4.347895    0.202610    0.000006
      2          6           0        3.152245   -0.420008    0.000000
      3          6           0        1.853288    0.284285   -0.000003
      4          6           0        0.646812   -0.349201   -0.000004
      5          6           0       -0.646812    0.349201   -0.000005
      6          6           0       -1.853288   -0.284285   -0.000003
      7          6           0       -3.152245    0.420008    0.000000
      8          6           0       -4.347895   -0.202610    0.000006
      9          1           0        4.427188    1.296506    0.000009
     10          1           0        5.290836   -0.356338    0.000009
     11          1           0        3.108232   -1.519419   -0.000003
     12          1           0        1.887535    1.383810   -0.000002
     13          1           0        0.615334   -1.448894   -0.000005
     14          1           0       -0.615334    1.448894   -0.000005
     15          1           0       -1.887535   -1.383810   -0.000002
     16          1           0       -3.108232    1.519419   -0.000003
     17          1           0       -5.290836    0.356338    0.000009
     18          1           0       -4.427188   -1.296506    0.000009
 ---------------------------------------------------------------------
 Rotational constants (GHZ):     19.0919938      0.5565817      0.5408155
 Standard basis: STO-3G (5D, 7F)
 There are    50 symmetry adapted cartesian basis functions of A   symmetry.
 There are    50 symmetry adapted basis functions of A   symmetry.
    50 basis functions,   150 primitive gaussians,    50 cartesian basis functions
    29 alpha electrons       29 beta electrons
       nuclear repulsion energy       294.1869692960 Hartrees.
 NAtoms=   18 NActive=   18 NUniq=   18 SFac= 1.00D+00 NAtFMM=   60 NAOKFM=F Big=F
 Integral buffers will be    131072 words long.
 Raffenetti 2 integral format.
 Two-electron integral symmetry is turned on.
 One-electron integrals computed using PRISM.
 NBasis=    50 RedAO= T EigKep=  1.93D-01  NBF=    50
 NBsUse=    50 1.00D-06 EigRej= -1.00D+00 NBFU=    50
 Initial guess from the checkpoint file:  "/data/scratch/Gau-51401.chk"
 B after Tr=     0.000000    0.000000    0.000000
         Rot=    1.000000    0.000000    0.000000   -0.000016 Ang=   0.00 deg.
 Keep R1 ints in memory in canonical form, NReq=1710030.
 Requested convergence on RMS density matrix=1.00D-08 within 128 cycles.
 Requested convergence on MAX density matrix=1.00D-06.
 Requested convergence on             energy=1.00D-06.
 No special actions if energy rises.
 SCF Done:  E(RB3LYP) =  -306.988578133     A.U. after    8 cycles
            NFock=  8  Conv=0.29D-08     -V/T= 2.0166
 Calling FoFJK, ICntrl=      2127 FMM=F ISym2X=0 I1Cent= 0 IOpClX= 0 NMat=1 NMatS=1 NMatT=0.
 ***** Axes restored to original set *****
 -------------------------------------------------------------------
 Center     Atomic                   Forces (Hartrees/Bohr)
 Number     Number              X              Y              Z
 -------------------------------------------------------------------
      1        6           0.000087935   -0.000031382    0.000044939
      2        6          -0.000026688   -0.000016414    0.000029723
      3        6          -0.000083354    0.000020885   -0.000027921
[...]
 ! A8    A(2,3,12)             116.6994         -DE/DX =    0.0                 !
 ! A9    A(4,3,12)             119.5028         -DE/DX =    0.0                 !
 ! A10   A(3,4,5)              123.9346         -DE/DX =    0.0                 !
 ! A11   A(3,4,13)             119.3439         -DE/DX =    0.0                 !
 ! A12   A(5,4,13)             116.7215         -DE/DX =    0.0                 !
 ! A13   A(4,5,6)              123.9346         -DE/DX =    0.0                 !
 ! A14   A(4,5,14)             116.7215         -DE/DX =    0.0                 !
 ! A15   A(6,5,14)             119.3439         -DE/DX =    0.0                 !
 ! A16   A(5,6,7)              123.7979         -DE/DX =    0.0                 !
 ! A17   A(5,6,15)             119.5028         -DE/DX =    0.0                 !
 ! A18   A(7,6,15)             116.6994         -DE/DX =    0.0                 !
 ! A19   A(6,7,8)              124.0431         -DE/DX =    0.0                 !
 ! A20   A(6,7,16)             116.1558         -DE/DX =    0.0                 !
 ! A21   A(8,7,16)             119.8012         -DE/DX =    0.0                 !
 ! A22   A(7,8,17)             121.8345         -DE/DX =    0.0                 !
 ! A23   A(7,8,18)             121.6778         -DE/DX =    0.0                 !
 ! A24   A(17,8,18)            116.4877         -DE/DX =    0.0                 !
 ! D1    D(9,1,2,3)              0.0            -DE/DX =    0.0                 !
 ! D2    D(9,1,2,11)          -180.0            -DE/DX =    0.0                 !
 ! D3    D(10,1,2,3)           180.0            -DE/DX =    0.0                 !
 ! D4    D(10,1,2,11)            0.0            -DE/DX =    0.0                 !
 ! D5    D(1,2,3,4)            180.0            -DE/DX =    0.0                 !
 ! D6    D(1,2,3,12)             0.0            -DE/DX =    0.0                 !
 ! D7    D(11,2,3,4)             0.0            -DE/DX =    0.0                 !
 ! D8    D(11,2,3,12)          180.0            -DE/DX =    0.0                 !
 ! D9    D(2,3,4,5)           -180.0            -DE/DX =    0.0                 !
 ! D10   D(2,3,4,13)             0.0            -DE/DX =    0.0                 !
 ! D11   D(12,3,4,5)             0.0            -DE/DX =    0.0                 !
 ! D12   D(12,3,4,13)          180.0            -DE/DX =    0.0                 !
 ! D13   D(3,4,5,6)            180.0            -DE/DX =    0.0                 !
 ! D14   D(3,4,5,14)             0.0            -DE/DX =    0.0                 !
 ! D15   D(13,4,5,6)             0.0            -DE/DX =    0.0                 !
 ! D16   D(13,4,5,14)          180.0            -DE/DX =    0.0                 !
 ! D17   D(4,5,6,7)            180.0            -DE/DX =    0.0                 !
 ! D18   D(4,5,6,15)             0.0            -DE/DX =    0.0                 !
 ! D19   D(14,5,6,7)             0.0            -DE/DX =    0.0                 !
 ! D20   D(14,5,6,15)         -180.0            -DE/DX =    0.0                 !
 ! D21   D(5,6,7,8)            180.0            -DE/DX =    0.0                 !
 ! D22   D(5,6,7,16)             0.0            -DE/DX =    0.0                 !
 ! D23   D(15,6,7,8)             0.0            -DE/DX =    0.0                 !
 ! D24   D(15,6,7,16)          180.0            -DE/DX =    0.0                 !
 ! D25   D(6,7,8,17)           180.0            -DE/DX =    0.0                 !
 ! D26   D(6,7,8,18)             0.0            -DE/DX =    0.0                 !
 ! D27   D(16,7,8,17)            0.0            -DE/DX =    0.0                 !
 ! D28   D(16,7,8,18)         -180.0            -DE/DX =    0.0                 !
 --------------------------------------------------------------------------------
 GradGradGradGradGradGradGradGradGradGradGradGradGradGradGradGradGradGrad

                          Input orientation:                          
 ---------------------------------------------------------------------
 Center     Atomic      Atomic             Coordinates (Angstroms)
 Number     Number       Type             X           Y           Z
 ---------------------------------------------------------------------
      1          6           0        1.312071    1.053745   -0.622214
      2          6           0        2.485882    0.670595   -0.081284
      3          6           0        2.606446   -0.089998    1.179759
      4          6           0        3.795933   -0.474829    1.722171
      5          6           0        3.919370   -1.231499    2.976414
      6          6           0        5.108857   -1.616331    3.518826
      7          6           0        5.229421   -2.376924    4.779868
      8          6           0        6.403232   -2.760074    5.320799
      9          1           0        0.353313    0.816832   -0.144989
     10          1           0        1.264755    1.617809   -1.560985
     11          1           0        3.429780    0.924981   -0.586454
     12          1           0        1.668147   -0.349116    1.692365
     13          1           0        4.732734   -0.214289    1.207316
     14          1           0        2.982570   -1.492039    3.491268
     15          1           0        6.047156   -1.357212    3.006220
     16          1           0        4.285523   -2.631310    5.285039
     17          1           0        6.450548   -3.324138    6.259569
     18          1           0        7.361990   -2.523161    4.843574
 ---------------------------------------------------------------------
                    Distance matrix (angstroms):
                    1          2          3          4          5
     1  C    0.000000
     2  C    1.348051   0.000000
     3  C    2.496129   1.477587   0.000000
     4  C    3.741958   2.506128   1.362786   0.000000
     5  C    4.997047   3.875870   2.500953   1.470004   0.000000
     6  C    6.220378   5.007077   3.750065   2.500953   1.362786
     7  C    7.503174   6.359652   5.007077   3.875870   2.506128
     8  C    8.705432   7.503174   6.220378   4.997047   3.741958
     9  H    1.096854   2.138527   2.766569   4.123871   5.162905
    10  H    1.096220   2.139599   3.496915   4.643825   5.979426
    11  H    2.121921   1.100388   2.197173   2.724571   4.193344
    12  H    2.729851   2.203255   1.100142   2.131704   2.737770
    13  H    4.081180   2.737125   2.130095   1.100251   2.196812
    14  H    5.117843   4.205569   2.729518   2.196812   1.100251
    15  H    6.434227   5.131019   4.096374   2.737770   2.131704
    16  H    7.570779   6.552763   5.111839   4.193344   2.724571
    17  H    9.639956   8.478378   7.144317   5.979426   4.643825
    18  H    8.903405   7.630906   6.477579   5.162905   4.123871
                    6          7          8          9         10
     6  C    0.000000
     7  C    1.477587   0.000000
     8  C    2.496129   1.348051   0.000000
     9  H    6.477579   7.630906   8.903405   0.000000
    10  H    7.144317   8.478378   9.639956   1.864762   0.000000
    11  H    5.111839   6.552763   7.570779   3.109861   2.473268
    12  H    4.096374   5.131019   6.434227   2.542459   3.823063
    13  H    2.729518   4.205569   5.117843   4.698007   4.800724
    14  H    2.130095   2.737125   4.081180   5.046409   6.176351
    15  H    1.100142   2.203255   2.729851   6.861227   7.251308
    16  H    2.197173   1.100388   2.121921   7.539043   8.605121
    17  H    3.496915   2.139599   1.096220   9.764337  10.605488
    18  H    2.766569   2.138527   1.096854   9.228373   9.764337
                   11         12         13         14         15
    11  H    0.000000
    12  H    3.149554   0.000000
    13  H    2.492637   3.105663   0.000000
    14  H    4.761282   2.504003   3.148357   0.000000
    15  H    4.996636   4.681687   2.504003   3.105663   0.000000
    16  H    6.917654   4.996636   4.761282   2.492637   3.149554
    17  H    8.605121   7.251308   6.176351   4.800724   3.823063
    18  H    7.539043   6.861227   5.046409   4.698007   2.542459
                   16         17         18
    16  H    0.000000
    17  H    2.473268   0.000000
    18  H    3.109861   1.864762   0.000000
 Stoichiometry    C8H10
 Framework group  C1[X(C8H10)]
 Deg. of freedom    48
 Full point group                 C1      NOp   1
 Largest Abelian subgroup         C1      NOp   1
 Largest concise Abelian subgroup C1      NOp   1
                         Standard orientation:                         
 ---------------------------------------------------------------------
 Center     Atomic      Atomic             Coordinates (Angstroms)
 Number     Number       Type             X           Y           Z
 ---------------------------------------------------------------------
      1          6           0        4.348017    0.202188    0.000000
      2          6           0        3.152002   -0.419736    0.000000
      3          6           0        1.853260    0.284915    0.000000
      4          6           0        0.646873   -0.348975    0.000000
      5          6           0       -0.646873    0.348975    0.000000
      6          6           0       -1.853260   -0.284915    0.000000
      7          6           0       -3.152002    0.419736    0.000000
      8          6           0       -4.348017   -0.202188    0.000000
      9          1           0        4.428416    1.296091    0.000000
     10          1           0        5.290690   -0.357335    0.000000
     11          1           0        3.107325   -1.519216    0.000000
     12          1           0        1.887496    1.384524    0.000000
     13          1           0        0.615683   -1.448783    0.000000
     14          1           0       -0.615683    1.448783    0.000000
     15          1           0       -1.887496   -1.384524    0.000000
     16          1           0       -3.107325    1.519216    0.000000
     17          1           0       -5.290690    0.357335    0.000000
     18          1           0       -4.428416   -1.296091    0.000000
 ---------------------------------------------------------------------
 Rotational constants (GHZ):     19.0944341      0.5565841      0.5408197

 **********************************************************************

            Population analysis using the SCF density.

 **********************************************************************

 Orbital symmetries:
       Occupied  (A) (A) (A) (A) (A) (A) (A) (A) (A) (A) (A) (A)
                 (A) (A) (A) (A) (A) (A) (A) (A) (A) (A) (A) (A)
                 (A) (A) (A) (A) (A)
       Virtual   (A) (A) (A) (A) (A) (A) (A) (A) (A) (A) (A) (A)
                 (A) (A) (A) (A) (A) (A) (A) (A) (A)
 The electronic state is 1-A.
 Alpha  occ. eigenvalues --  -10.00805 -10.00805 -10.00705 -10.00620 -10.00551
 Alpha  occ. eigenvalues --  -10.00543  -9.99144  -9.99144  -0.77386  -0.74982
 Alpha  occ. eigenvalues --   -0.71285  -0.66627  -0.58059  -0.52805  -0.51978
 Alpha  occ. eigenvalues --   -0.50729  -0.43741  -0.42391  -0.40539  -0.37521
 Alpha  occ. eigenvalues --   -0.35755  -0.33799  -0.32637  -0.31077  -0.29483
 Alpha  occ. eigenvalues --   -0.29130  -0.25800  -0.20542  -0.13874
 Alpha virt. eigenvalues --    0.02330   0.10336   0.17469   0.22292   0.31938
 Alpha virt. eigenvalues --    0.36647   0.40377   0.41457   0.42360   0.42710
 Alpha virt. eigenvalues --    0.42997   0.43305   0.43621   0.54244   0.54932
 Alpha virt. eigenvalues --    0.61287   0.62559   0.67506   0.69370   0.74379
 Alpha virt. eigenvalues --    0.77425
          Condensed to atoms (all electrons):
               1          2          3          4          5          6
     1  C    4.855683   0.580456  -0.027568   0.000683  -0.000006   0.000000
     2  C    0.580456   4.790365   0.424930  -0.026665   0.000811  -0.000006
     3  C   -0.027568   0.424930   4.817390   0.561129  -0.026878   0.000686
     4  C    0.000683  -0.026665   0.561129   4.810413   0.432496  -0.026878
     5  C   -0.000006   0.000811  -0.026878   0.432496   4.810413   0.561129
     6  C    0.000000  -0.000006   0.000686  -0.026878   0.561129   4.817390
     7  C    0.000000   0.000000  -0.000006   0.000811  -0.026665   0.424930
     8  C    0.000000   0.000000   0.000000  -0.000006   0.000683  -0.027568
     9  H    0.386166  -0.024423  -0.004218   0.000025  -0.000001   0.000000
    10  H    0.388059  -0.023839   0.001413  -0.000019   0.000000   0.000000
    11  H   -0.026791   0.385299  -0.025277  -0.003218   0.000003   0.000000
    12  H   -0.003072  -0.024610   0.384230  -0.026660  -0.004186   0.000025
    13  H    0.000027  -0.004229  -0.026740   0.384307  -0.024849  -0.003231
    14  H    0.000000   0.000003  -0.003231  -0.024849   0.384307  -0.026740
    15  H    0.000000  -0.000001   0.000025  -0.004186  -0.026660   0.384230
    16  H    0.000000   0.000000   0.000000   0.000003  -0.003218  -0.025277
    17  H    0.000000   0.000000   0.000000   0.000000  -0.000019   0.001413
    18  H    0.000000   0.000000   0.000000  -0.000001   0.000025  -0.004218
               7          8          9         10         11         12
     1  C    0.000000   0.000000   0.386166   0.388059  -0.026791  -0.003072
     2  C    0.000000   0.000000  -0.024423  -0.023839   0.385299  -0.024610
     3  C   -0.000006   0.000000  -0.004218   0.001413  -0.025277   0.384230
     4  C    0.000811  -0.000006   0.000025  -0.000019  -0.003218  -0.026660
     5  C   -0.026665   0.000683  -0.000001   0.000000   0.000003  -0.004186
     6  C    0.424930  -0.027568   0.000000   0.000000   0.000000   0.000025
     7  C    4.790365   0.580456   0.000000   0.000000   0.000000  -0.000001
     8  C    0.580456   4.855683   0.000000   0.000000   0.000000   0.000000
     9  H    0.000000   0.000000   0.586720  -0.023576   0.002007   0.000955
    10  H    0.000000   0.000000  -0.023576   0.584254  -0.004634   0.000000
    11  H    0.000000   0.000000   0.002007  -0.004634   0.592549   0.001549
    12  H   -0.000001   0.000000   0.000955   0.000000   0.001549   0.592470
    13  H    0.000003   0.000000   0.000001  -0.000001   0.001014   0.001978
    14  H   -0.004229   0.000027   0.000000   0.000000   0.000000   0.000978
    15  H   -0.024610  -0.003072   0.000000   0.000000   0.000000   0.000001
    16  H    0.385299  -0.026791   0.000000   0.000000   0.000000   0.000000
    17  H   -0.023839   0.388059   0.000000   0.000000   0.000000   0.000000
    18  H   -0.024423   0.386166   0.000000   0.000000   0.000000   0.000000
              13         14         15         16         17         18
     1  C    0.000027   0.000000   0.000000   0.000000   0.000000   0.000000
     2  C   -0.004229   0.000003  -0.000001   0.000000   0.000000   0.000000
     3  C   -0.026740  -0.003231   0.000025   0.000000   0.000000   0.000000
     4  C    0.384307  -0.024849  -0.004186   0.000003   0.000000  -0.000001
     5  C   -0.024849   0.384307  -0.026660  -0.003218  -0.000019   0.000025
     6  C   -0.003231  -0.026740   0.384230  -0.025277   0.001413  -0.004218
     7  C    0.000003  -0.004229  -0.024610   0.385299  -0.023839  -0.024423
     8  C    0.000000   0.000027  -0.003072  -0.026791   0.388059   0.386166
     9  H    0.000001   0.000000   0.000000   0.000000   0.000000   0.000000
    10  H   -0.000001   0.000000   0.000000   0.000000   0.000000   0.000000
    11  H    0.001014   0.000000   0.000000   0.000000   0.000000   0.000000
    12  H    0.001978   0.000978   0.000001   0.000000   0.000000   0.000000
    13  H    0.592706   0.001564   0.000978   0.000000   0.000000   0.000000
    14  H    0.001564   0.592706   0.001978   0.001014  -0.000001   0.000001
    15  H    0.000978   0.001978   0.592470   0.001549   0.000000   0.000955
    16  H    0.000000   0.001014   0.001549   0.592549  -0.004634   0.002007
    17  H    0.000000  -0.000001   0.000000  -0.004634   0.584254  -0.023576
    18  H    0.000000   0.000001   0.000955   0.002007  -0.023576   0.586720
 Mulliken charges:
               1
     1  C   -0.153637
     2  C   -0.078092
     3  C   -0.075884
     4  C   -0.077387
     5  C   -0.077387
     6  C   -0.075884
     7  C   -0.078092
     8  C   -0.153637
     9  H    0.076344
    10  H    0.078343
    11  H    0.077499
    12  H    0.076342
    13  H    0.076471
    14  H    0.076471
    15  H    0.076342
    16  H    0.077499
    17  H    0.078343
    18  H    0.076344
 Sum of Mulliken charges =   0.00000
 Mulliken charges with hydrogens summed into heavy atoms:
               1
     1  C    0.001051
     2  C   -0.000593
     3  C    0.000458
     4  C   -0.000916
     5  C   -0.000916
     6  C    0.000458
     7  C   -0.000593
     8  C    0.001051
 Electronic spatial extent (au):  <R**2>=           2012.6652
 Charge=              0.0000 electrons
 Dipole moment (field-independent basis, Debye):
    X=              0.0000    Y=              0.0000    Z=              0.0000  Tot=              0.0000
 Quadrupole moment (field-independent basis, Debye-Ang):
   XX=            -42.1867   YY=            -41.6253   ZZ=            -48.6654
   XY=              0.0882   XZ=              0.0000   YZ=              0.0000
 Traceless Quadrupole moment (field-independent basis, Debye-Ang):
   XX=              1.9724   YY=              2.5338   ZZ=             -4.5062
   XY=              0.0882   XZ=              0.0000   YZ=              0.0000
 Octapole moment (field-independent basis, Debye-Ang**2):
  XXX=              0.0000  YYY=              0.0000  ZZZ=              0.0000  XYY=              0.0000
  XXY=              0.0000  XXZ=              0.0000  XZZ=              0.0000  YZZ=              0.0000
  YYZ=              0.0000  XYZ=              0.0000
 Hexadecapole moment (field-independent basis, Debye-Ang**3):
 XXXX=          -2281.8544 YYYY=           -117.6909 ZZZZ=            -39.4608 XXXY=            -12.2691
 XXXZ=              0.0000 YYYX=              3.1636 YYYZ=              0.0000 ZZZX=              0.0000
 ZZZY=              0.0000 XXYY=           -400.2003 XXZZ=           -444.9840 YYZZ=            -30.2005
 XXYZ=              0.0000 YYXZ=              0.0000 ZZXY=              0.2028
 N-N= 2.941829713399D+02 E-N=-1.298562009776D+03  KE= 3.019893676827D+02
 1\1\GINC-PC-AVL46\FOpt\RB3LYP\STO-3G\C8H10\BING\28-Jan-2019\0\\# opt(t
 ight) b3lyp/sto-3g\\c08h10\\0,1\C,1.312071116,1.0537453032,-0.62221415
 28\C,2.4858821479,0.6705946562,-0.0812838538\C,2.6064461727,-0.0899975
 569,1.1797586643\C,3.7959328946,-0.4748294387,1.7221705962\C,3.9193704
 435,-1.2314993612,2.9764139014\C,5.108857163,-1.6163312882,3.518825806
 2\C,5.2294211861,-2.3769235303,4.7798683071\C,6.403232214,-2.760074253
 1,5.3207985608\H,0.3533128402,0.8168321097,-0.1449891953\H,1.264755177
 9,1.6178092103,-1.5609850916\H,3.4297799346,0.9249810734,-0.5864544712
 \H,1.6681473155,-0.349116465,1.6923647807\H,4.73273366,-0.2142894933,1
 .2073163655\H,2.9825696784,-1.4920393001,3.491268136\H,6.047156021,-1.
 3572123658,3.0062196985\H,4.2855233992,-2.6313099473,5.2850389243\H,6.
 4505481473,-3.3241382574,6.2595694416\H,7.3619904856,-2.5231611441,4.8
 435735528\\Version=ES64L-G09RevD.01\State=1-A\HF=-306.9885784\RMSD=5.6
 70e-09\RMSF=9.408e-07\Dipole=0.,0.0000001,0.\Quadrupole=1.8091948,-2.0
 625975,0.2534026,-0.1080968,-0.2565473,-2.1430637\PG=C01 [X(C8H10)]\\@


 PENOTUS DIED A HUNDRED YEARS OLD WANTING BUT TWO...
 AND HE USED TO SAY BEFORE HE DIED, HAVING SPENT HIS
 WHOLE LIFE IN VAINLY SEARCHING AFTER THE PHILOSOPHER'S
 STONE, THAT IF HE HAD A MORTAL ENEMY HE DID NOT DARE
 TO ENCOUNTER OPENLY, HE WOULD ADVISE HIM ABOVE ALL
 THINGS TO GIVE HIMSELF UP TO THE STUDY AND PRACTICE
 OF ALCHEMY.  --  NICOLAS LEMERY, M.D.
 "A COURSE OF CHYMISTRY", WALTER KETTILBY, LONDON, 1686
 Job cpu time:       0 days  0 hours  1 minutes 38.6 seconds.
 File lengths (MBytes):  RWF=      5 Int=      0 D2E=      0 Chk=      2 Scr=      1
 Normal termination of Gaussian 09 at Mon Jan 28 19:29:37 2019.
