 Entering Gaussian System, Link 0=g09
 Input=c10h12.com
 Output=c10h12.out
 Initial command:
 /apps/g09_d.01/g09/l1.exe "/data/scratch/Gau-51402.inp" -scrdir="/data/scratch/"
 Entering Link 1 = /apps/g09_d.01/g09/l1.exe PID=     51407.
  
 Copyright (c) 1988,1990,1992,1993,1995,1998,2003,2009,2013,
            Gaussian, Inc.  All Rights Reserved.
  
 This is part of the Gaussian(R) 09 program.  It is based on
 the Gaussian(R) 03 system (copyright 2003, Gaussian, Inc.),
 the Gaussian(R) 98 system (copyright 1998, Gaussian, Inc.),
 the Gaussian(R) 94 system (copyright 1995, Gaussian, Inc.),
 the Gaussian 92(TM) system (copyright 1992, Gaussian, Inc.),
 the Gaussian 90(TM) system (copyright 1990, Gaussian, Inc.),
 the Gaussian 88(TM) system (copyright 1988, Gaussian, Inc.),
 the Gaussian 86(TM) system (copyright 1986, Carnegie Mellon
 University), and the Gaussian 82(TM) system (copyright 1983,
 Carnegie Mellon University). Gaussian is a federally registered
 trademark of Gaussian, Inc.
  
 This software contains proprietary and confidential information,
 including trade secrets, belonging to Gaussian, Inc.
  
 This software is provided under written license and may be
 used, copied, transmitted, or stored only in accord with that
 written license.
  
 The following legend is applicable only to US Government
 contracts under FAR:
  
                    RESTRICTED RIGHTS LEGEND
  
 Use, reproduction and disclosure by the US Government is
 subject to restrictions as set forth in subparagraphs (a)
 and (c) of the Commercial Computer Software - Restricted
 Rights clause in FAR 52.227-19.
  
 Gaussian, Inc.
 340 Quinnipiac St., Bldg. 40, Wallingford CT 06492
  
  
 ---------------------------------------------------------------
 Warning -- This program may not be used in any manner that
 competes with the business of Gaussian, Inc. or will provide
 assistance to any competitor of Gaussian, Inc.  The licensee
 of this program is prohibited from giving any competitor of
 Gaussian, Inc. access to this program.  By using this program,
 the user acknowledges that Gaussian, Inc. is engaged in the
 business of creating and licensing software in the field of
 computational chemistry and represents and warrants to the
 licensee that it is not a competitor of Gaussian, Inc. and that
 it will not use this program in any manner prohibited above.
 ---------------------------------------------------------------
  

 Cite this work as:
 Gaussian 09, Revision D.01,
 M. J. Frisch, G. W. Trucks, H. B. Schlegel, G. E. Scuseria, 
 M. A. Robb, J. R. Cheeseman, G. Scalmani, V. Barone, B. Mennucci, 
 G. A. Petersson, H. Nakatsuji, M. Caricato, X. Li, H. P. Hratchian, 
 A. F. Izmaylov, J. Bloino, G. Zheng, J. L. Sonnenberg, M. Hada, 
 M. Ehara, K. Toyota, R. Fukuda, J. Hasegawa, M. Ishida, T. Nakajima, 
 Y. Honda, O. Kitao, H. Nakai, T. Vreven, J. A. Montgomery, Jr., 
 J. E. Peralta, F. Ogliaro, M. Bearpark, J. J. Heyd, E. Brothers, 
 K. N. Kudin, V. N. Staroverov, T. Keith, R. Kobayashi, J. Normand, 
 K. Raghavachari, A. Rendell, J. C. Burant, S. S. Iyengar, J. Tomasi, 
 M. Cossi, N. Rega, J. M. Millam, M. Klene, J. E. Knox, J. B. Cross, 
 V. Bakken, C. Adamo, J. Jaramillo, R. Gomperts, R. E. Stratmann, 
 O. Yazyev, A. J. Austin, R. Cammi, C. Pomelli, J. W. Ochterski, 
 R. L. Martin, K. Morokuma, V. G. Zakrzewski, G. A. Voth, 
 P. Salvador, J. J. Dannenberg, S. Dapprich, A. D. Daniels, 
 O. Farkas, J. B. Foresman, J. V. Ortiz, J. Cioslowski, 
 and D. J. Fox, Gaussian, Inc., Wallingford CT, 2013.
 
 ******************************************
 Gaussian 09:  ES64L-G09RevD.01 24-Apr-2013
                28-Jan-2019 
 ******************************************
 %nproc=6
 Will use up to    6 processors via shared memory.
 -------------------------
 # opt(tight) b3lyp/sto-3g
 -------------------------
 1/7=10,14=-1,18=20,19=15,26=3,38=1/1,3;
 2/9=110,12=2,17=6,18=5,40=1/2;
 3/6=3,11=2,16=1,25=1,30=1,71=1,74=-5/1,2,3;
 4//1;
 5/5=2,38=5/2;
 6/7=2,8=2,9=2,10=2,28=1/1;
 7//1,2,3,16;
 1/7=10,14=-1,18=20,19=15,26=3/3(2);
 2/9=110/2;
 99//99;
 2/9=110/2;
 3/6=3,11=2,16=1,25=1,30=1,71=1,74=-5/1,2,3;
 4/5=5,16=3,69=1/1;
 5/5=2,38=5/2;
 7//1,2,3,16;
 1/7=10,14=-1,18=20,19=15,26=3/3(-5);
 2/9=110/2;
 6/7=2,8=2,9=2,10=2,19=2,28=1/1;
 99/9=1/99;
 ------
 c10h12
 ------
 Symbolic Z-matrix:
 Charge =  0 Multiplicity = 1
 C                     1.21705  -0.22528  -0.33553 
 C                     1.77984   0.59621  -1.22487 
 C                     3.24639   0.76885  -1.27723 
 C                     3.80688   1.59424  -2.1713 
 C                     5.27366   1.76772  -2.22463 
 C                     5.83319   2.59338  -3.11912 
 C                     7.2998    2.76768  -3.17342 
 C                     7.85835   3.59357  -4.0683 
 C                     9.32451   3.76824  -4.12309 
 C                     9.88434   4.59049  -5.01366 
 H                     1.82382  -0.78554   0.36984 
 H                     0.1382   -0.34007  -0.31107 
 H                     1.14462   1.14253  -1.91703 
 H                     3.87441   0.21799  -0.58057 
 H                     3.17817   2.14472  -2.86762 
 H                     5.90268   1.2174   -1.52847 
 H                     5.20384   3.14352  -3.81512 
 H                     7.92965   2.21779  -2.47765 
 H                     7.2287    4.14357  -4.76418 
 H                     9.96177   3.22303  -3.43196 
 H                     9.27529   5.14962  -5.718 
 H                     10.96292   4.70709  -5.04027 
 

 GradGradGradGradGradGradGradGradGradGradGradGradGradGradGradGradGradGrad
 Berny optimization.
 Initialization pass.
                           ----------------------------
                           !    Initial Parameters    !
                           ! (Angstroms and Degrees)  !
 --------------------------                            --------------------------
 ! Name  Definition              Value          Derivative Info.                !
 --------------------------------------------------------------------------------
 ! R1    R(1,2)                  1.3351         estimate D2E/DX2                !
 ! R2    R(1,11)                 1.0861         estimate D2E/DX2                !
 ! R3    R(1,12)                 1.0852         estimate D2E/DX2                !
 ! R4    R(2,3)                  1.4776         estimate D2E/DX2                !
 ! R5    R(2,13)                 1.0868         estimate D2E/DX2                !
 ! R6    R(3,4)                  1.3397         estimate D2E/DX2                !
 ! R7    R(3,14)                 1.0877         estimate D2E/DX2                !
 ! R8    R(4,5)                  1.478          estimate D2E/DX2                !
 ! R9    R(4,15)                 1.0877         estimate D2E/DX2                !
 ! R10   R(5,6)                  1.3397         estimate D2E/DX2                !
 ! R11   R(5,16)                 1.0877         estimate D2E/DX2                !
 ! R12   R(6,7)                  1.4779         estimate D2E/DX2                !
 ! R13   R(6,17)                 1.0877         estimate D2E/DX2                !
 ! R14   R(7,8)                  1.3397         estimate D2E/DX2                !
 ! R15   R(7,18)                 1.0877         estimate D2E/DX2                !
 ! R16   R(8,9)                  1.4775         estimate D2E/DX2                !
 ! R17   R(8,19)                 1.0878         estimate D2E/DX2                !
 ! R18   R(9,10)                 1.3351         estimate D2E/DX2                !
 ! R19   R(9,20)                 1.0867         estimate D2E/DX2                !
 ! R20   R(10,21)                1.0861         estimate D2E/DX2                !
 ! R21   R(10,22)                1.0852         estimate D2E/DX2                !
 ! A1    A(2,1,11)             120.9652         estimate D2E/DX2                !
 ! A2    A(2,1,12)             119.9443         estimate D2E/DX2                !
 ! A3    A(11,1,12)            119.0905         estimate D2E/DX2                !
 ! A4    A(1,2,3)              120.9222         estimate D2E/DX2                !
 ! A5    A(1,2,13)             119.1552         estimate D2E/DX2                !
 ! A6    A(3,2,13)             119.9226         estimate D2E/DX2                !
 ! A7    A(2,3,4)              120.7221         estimate D2E/DX2                !
 ! A8    A(2,3,14)             119.4178         estimate D2E/DX2                !
 ! A9    A(4,3,14)             119.86           estimate D2E/DX2                !
 ! A10   A(3,4,5)              120.7707         estimate D2E/DX2                !
 ! A11   A(3,4,15)             119.8149         estimate D2E/DX2                !
 ! A12   A(5,4,15)             119.4145         estimate D2E/DX2                !
 ! A13   A(4,5,6)              120.7244         estimate D2E/DX2                !
 ! A14   A(4,5,16)             119.4347         estimate D2E/DX2                !
 ! A15   A(6,5,16)             119.8409         estimate D2E/DX2                !
 ! A16   A(5,6,7)              120.7741         estimate D2E/DX2                !
 ! A17   A(5,6,17)             119.8194         estimate D2E/DX2                !
 ! A18   A(7,6,17)             119.4065         estimate D2E/DX2                !
 ! A19   A(6,7,8)              120.7279         estimate D2E/DX2                !
 ! A20   A(6,7,18)             119.4384         estimate D2E/DX2                !
 ! A21   A(8,7,18)             119.8337         estimate D2E/DX2                !
 ! A22   A(7,8,9)              120.7534         estimate D2E/DX2                !
 ! A23   A(7,8,19)             119.847          estimate D2E/DX2                !
 ! A24   A(9,8,19)             119.3996         estimate D2E/DX2                !
 ! A25   A(8,9,10)             120.9045         estimate D2E/DX2                !
 ! A26   A(8,9,20)             119.9328         estimate D2E/DX2                !
 ! A27   A(10,9,20)            119.1626         estimate D2E/DX2                !
 ! A28   A(9,10,21)            120.9617         estimate D2E/DX2                !
 ! A29   A(9,10,22)            119.952          estimate D2E/DX2                !
 ! A30   A(21,10,22)           119.0862         estimate D2E/DX2                !
 ! D1    D(11,1,2,3)            -0.0005         estimate D2E/DX2                !
 ! D2    D(11,1,2,13)         -179.9998         estimate D2E/DX2                !
 ! D3    D(12,1,2,3)          -179.9998         estimate D2E/DX2                !
 ! D4    D(12,1,2,13)            0.0008         estimate D2E/DX2                !
 ! D5    D(1,2,3,4)            179.9996         estimate D2E/DX2                !
 ! D6    D(1,2,3,14)             0.0009         estimate D2E/DX2                !
 ! D7    D(13,2,3,4)            -0.001          estimate D2E/DX2                !
 ! D8    D(13,2,3,14)         -179.9997         estimate D2E/DX2                !
 ! D9    D(2,3,4,5)           -179.9992         estimate D2E/DX2                !
 ! D10   D(2,3,4,15)             0.0002         estimate D2E/DX2                !
 ! D11   D(14,3,4,5)            -0.0005         estimate D2E/DX2                !
 ! D12   D(14,3,4,15)          179.9989         estimate D2E/DX2                !
 ! D13   D(3,4,5,6)            179.9996         estimate D2E/DX2                !
 ! D14   D(3,4,5,16)            -0.0003         estimate D2E/DX2                !
 ! D15   D(15,4,5,6)             0.0002         estimate D2E/DX2                !
 ! D16   D(15,4,5,16)         -179.9997         estimate D2E/DX2                !
 ! D17   D(4,5,6,7)           -179.9997         estimate D2E/DX2                !
 ! D18   D(4,5,6,17)            -0.0005         estimate D2E/DX2                !
 ! D19   D(16,5,6,7)             0.0002         estimate D2E/DX2                !
 ! D20   D(16,5,6,17)          179.9994         estimate D2E/DX2                !
 ! D21   D(5,6,7,8)            179.9991         estimate D2E/DX2                !
 ! D22   D(5,6,7,18)            -0.001          estimate D2E/DX2                !
 ! D23   D(17,6,7,8)            -0.0002         estimate D2E/DX2                !
 ! D24   D(17,6,7,18)          179.9997         estimate D2E/DX2                !
 ! D25   D(6,7,8,9)           -179.9994         estimate D2E/DX2                !
 ! D26   D(6,7,8,19)            -0.0003         estimate D2E/DX2                !
 ! D27   D(18,7,8,9)             0.0007         estimate D2E/DX2                !
 ! D28   D(18,7,8,19)          179.9999         estimate D2E/DX2                !
 ! D29   D(7,8,9,10)           179.9998         estimate D2E/DX2                !
 ! D30   D(7,8,9,20)            -0.001          estimate D2E/DX2                !
 ! D31   D(19,8,9,10)            0.0006         estimate D2E/DX2                !
 ! D32   D(19,8,9,20)          179.9998         estimate D2E/DX2                !
 ! D33   D(8,9,10,21)           -0.0009         estimate D2E/DX2                !
 ! D34   D(8,9,10,22)          179.9998         estimate D2E/DX2                !
 ! D35   D(20,9,10,21)         179.9999         estimate D2E/DX2                !
 ! D36   D(20,9,10,22)           0.0006         estimate D2E/DX2                !
 --------------------------------------------------------------------------------
 Trust Radius=3.00D-01 FncErr=1.00D-07 GrdErr=1.00D-06
 Number of steps in this run=     97 maximum allowed number of steps=    132.
 GradGradGradGradGradGradGradGradGradGradGradGradGradGradGradGradGradGrad

                          Input orientation:                          
 ---------------------------------------------------------------------
 Center     Atomic      Atomic             Coordinates (Angstroms)
 Number     Number       Type             X           Y           Z
 ---------------------------------------------------------------------
      1          6           0        1.217050   -0.225280   -0.335530
      2          6           0        1.779840    0.596210   -1.224870
      3          6           0        3.246390    0.768850   -1.277230
      4          6           0        3.806880    1.594240   -2.171300
      5          6           0        5.273660    1.767720   -2.224630
      6          6           0        5.833190    2.593380   -3.119120
      7          6           0        7.299800    2.767680   -3.173420
      8          6           0        7.858350    3.593570   -4.068300
      9          6           0        9.324510    3.768240   -4.123090
     10          6           0        9.884340    4.590490   -5.013660
     11          1           0        1.823820   -0.785540    0.369840
     12          1           0        0.138200   -0.340070   -0.311070
     13          1           0        1.144620    1.142530   -1.917030
     14          1           0        3.874410    0.217990   -0.580570
     15          1           0        3.178170    2.144720   -2.867620
     16          1           0        5.902680    1.217400   -1.528470
     17          1           0        5.203840    3.143520   -3.815120
     18          1           0        7.929650    2.217790   -2.477650
     19          1           0        7.228700    4.143570   -4.764180
     20          1           0        9.961770    3.223030   -3.431960
     21          1           0        9.275290    5.149620   -5.718000
     22          1           0       10.962920    4.707090   -5.040270
 ---------------------------------------------------------------------
                    Distance matrix (angstroms):
                    1          2          3          4          5
     1  C    0.000000
     2  C    1.335105   0.000000
     3  C    2.448125   1.477604   0.000000
     4  C    3.658951   2.449630   1.339694   0.000000
     5  C    4.898656   3.818211   2.450537   1.477966   0.000000
     6  C    6.082924   4.899645   3.662377   2.450015   1.339739
     7  C    7.349236   6.243564   4.901121   3.818599   2.450585
     8  C    8.521975   7.349663   6.085991   4.900035   3.662440
     9  C    9.799220   8.682367   7.351109   6.243397   4.900573
    10  C   10.963506   9.797557   8.522219   7.347928   6.083181
    11  H    1.086098   2.110514   2.674448   4.006654   5.015158
    12  H    1.085215   2.099198   3.438606   4.545462   5.871749
    13  H    2.092198   1.086764   2.228546   2.712254   4.187416
    14  H    2.705198   2.223825   1.087746   2.104530   2.657536
    15  H    3.984265   2.655530   2.104047   1.087734   2.224105
    16  H    5.045747   4.180414   2.705586   2.224324   1.087730
    17  H    6.273026   4.992190   3.988929   2.655920   2.104129
    18  H    7.457632   6.482217   5.047114   4.180897   2.705710
    19  H    8.650996   7.402740   6.277448   4.993091   3.989506
    20  H    9.896911   8.872170   7.467408   6.490369   5.055091
    21  H   11.081325   9.854112   8.675207   7.424508   6.297136
    22  H   11.893058  10.760370   9.445371   8.314429   6.995384
                    6          7          8          9         10
     6  C    0.000000
     7  C    1.477929   0.000000
     8  C    2.450020   1.339732   0.000000
     9  C    3.818058   2.449989   1.477544   0.000000
    10  C    4.897912   3.659094   2.447895   1.335148   0.000000
    11  H    6.298015   7.427410   8.676937   9.858178  11.084031
    12  H    6.994511   8.315027   9.444100  10.760948  11.891679
    13  H    5.052987   6.488904   7.463895   8.869704   9.892434
    14  H    3.990430   4.995707   6.279377   7.406572   8.653918
    15  H    2.704381   4.179644   5.044292   6.479932   7.453858
    16  H    2.104357   2.657287   3.990184   4.994773   6.275181
    17  H    1.087728   2.223979   2.704269   4.179120   5.043540
    18  H    2.224342   1.087744   2.104287   2.656502   3.985206
    19  H    2.656456   2.104435   1.087754   2.223576   2.704515
    20  H    4.188019   2.712982   2.228588   1.086745   2.092299
    21  H    5.013641   4.006381   2.674046   2.110538   1.086123
    22  H    5.871347   4.545865   3.438460   2.099297   1.085191
                   11         12         13         14         15
    11  H    0.000000
    12  H    1.871736   0.000000
    13  H    3.067335   2.406261   0.000000
    14  H    2.472907   3.787258   3.176894   0.000000
    15  H    4.571852   4.685248   2.458319   3.070446   0.000000
    16  H    4.924677   6.094014   4.774486   2.451778   3.174303
    17  H    6.661527   7.076332   4.907543   4.559432   2.449224
    18  H    7.376269   8.481946   6.892540   4.903375   4.768016
    19  H    8.936835   9.497811   7.357210   6.645602   4.898891
    20  H    9.836084  10.905877   9.185076   7.363195   6.891913
    21  H   11.305411  11.952322   9.829137   8.937766   7.370818
    22  H   11.956648  12.845767  10.902281   9.501995   8.478707
                   16         17         18         19         20
    16  H    0.000000
    17  H    3.070356   0.000000
    18  H    2.451597   3.174247   0.000000
    19  H    4.559673   2.449668   3.070534   0.000000
    20  H    4.911419   4.773995   2.459822   3.176771   0.000000
    21  H    6.662508   4.921595   4.572334   2.471930   3.067407
    22  H    7.079315   6.092023   4.686615   3.786579   2.406532
                   21         22
    21  H    0.000000
    22  H    1.871696   0.000000
 Stoichiometry    C10H12
 Framework group  C1[X(C10H12)]
 Deg. of freedom    60
 Full point group                 C1      NOp   1
 Largest Abelian subgroup         C1      NOp   1
 Largest concise Abelian subgroup C1      NOp   1
                         Standard orientation:                         
 ---------------------------------------------------------------------
 Center     Atomic      Atomic             Coordinates (Angstroms)
 Number     Number       Type             X           Y           Z
 ---------------------------------------------------------------------
      1          6           0       -5.476828    0.237785    0.000031
      2          6           0       -4.319648   -0.428128    0.000010
      3          6           0       -3.029299    0.291813   -0.000007
      4          6           0       -1.870483   -0.380440   -0.000020
      5          6           0       -0.579208    0.338582   -0.000021
      6          6           0        0.579104   -0.334629   -0.000025
      7          6           0        1.870969    0.383256   -0.000020
      8          6           0        3.028733   -0.290884   -0.000006
      9          6           0        4.320581    0.426240    0.000012
     10          6           0        5.476151   -0.242548    0.000031
     11          1           0       -5.496662    1.323702    0.000042
     12          1           0       -6.415353   -0.307066    0.000047
     13          1           0       -4.334131   -1.514795   -0.000004
     14          1           0       -3.024385    1.379547    0.000011
     15          1           0       -1.876255   -1.468159   -0.000020
     16          1           0       -0.573053    1.426295   -0.000017
     17          1           0        0.572540   -1.422337   -0.000020
     18          1           0        1.878137    1.470976   -0.000030
     19          1           0        3.021818   -1.378616    0.000006
     20          1           0        4.337603    1.512852   -0.000003
     21          1           0        5.493241   -1.328536    0.000047
     22          1           0        6.416069    0.299848    0.000041
 ---------------------------------------------------------------------
 Rotational constants (GHZ):     14.5882061      0.2994169      0.2933951
 Standard basis: STO-3G (5D, 7F)
 There are    62 symmetry adapted cartesian basis functions of A   symmetry.
 There are    62 symmetry adapted basis functions of A   symmetry.
    62 basis functions,   186 primitive gaussians,    62 cartesian basis functions
    36 alpha electrons       36 beta electrons
       nuclear repulsion energy       412.5057604058 Hartrees.
 NAtoms=   22 NActive=   22 NUniq=   22 SFac= 1.00D+00 NAtFMM=   60 NAOKFM=F Big=F
 Integral buffers will be    131072 words long.
 Raffenetti 2 integral format.
 Two-electron integral symmetry is turned on.
 One-electron integrals computed using PRISM.
 NBasis=    62 RedAO= T EigKep=  1.83D-01  NBF=    62
 NBsUse=    62 1.00D-06 EigRej= -1.00D+00 NBFU=    62
 ExpMin= 1.69D-01 ExpMax= 7.16D+01 ExpMxC= 7.16D+01 IAcc=1 IRadAn=         1 AccDes= 0.00D+00
 Harris functional with IExCor=  402 and IRadAn=       1 diagonalized for initial guess.
 HarFok:  IExCor=  402 AccDes= 0.00D+00 IRadAn=         1 IDoV= 1 UseB2=F ITyADJ=14
 ICtDFT=  3500011 ScaDFX=  1.000000  1.000000  1.000000  1.000000
 FoFCou: FMM=F IPFlag=           0 FMFlag=      100000 FMFlg1=           0
         NFxFlg=           0 DoJE=T BraDBF=F KetDBF=T FulRan=T
         wScrn=  0.000000 ICntrl=     500 IOpCl=  0 I1Cent=   200000004 NGrid=           0
         NMat0=    1 NMatS0=      1 NMatT0=    0 NMatD0=    1 NMtDS0=    0 NMtDT0=    0
 Petite list used in FoFCou.
 Keep R1 ints in memory in canonical form, NReq=2821695.
 Requested convergence on RMS density matrix=1.00D-08 within 128 cycles.
 Requested convergence on MAX density matrix=1.00D-06.
 Requested convergence on             energy=1.00D-06.
 No special actions if energy rises.
 Integral accuracy reduced to 1.0D-05 until final iterations.
 Initial convergence to 1.0D-05 achieved.  Increase integral accuracy.
 SCF Done:  E(RB3LYP) =  -383.435528708     A.U. after   12 cycles
            NFock= 12  Conv=0.72D-08     -V/T= 2.0157

 **********************************************************************

            Population analysis using the SCF density.

 **********************************************************************

 Orbital symmetries:
       Occupied  (A) (A) (A) (A) (A) (A) (A) (A) (A) (A) (A) (A)
                 (A) (A) (A) (A) (A) (A) (A) (A) (A) (A) (A) (A)
                 (A) (A) (A) (A) (A) (A) (A) (A) (A) (A) (A) (A)
       Virtual   (A) (A) (A) (A) (A) (A) (A) (A) (A) (A) (A) (A)
                 (A) (A) (A) (A) (A) (A) (A) (A) (A) (A) (A) (A)
                 (A) (A)
 The electronic state is 1-A.
 Alpha  occ. eigenvalues --  -10.00525 -10.00522 -10.00392 -10.00381 -10.00309
 Alpha  occ. eigenvalues --  -10.00295 -10.00280 -10.00267  -9.98760  -9.98756
 Alpha  occ. eigenvalues --   -0.78323  -0.76617  -0.73899  -0.70362  -0.66561
 Alpha  occ. eigenvalues --   -0.57905  -0.53631  -0.53195  -0.51757  -0.50769
 Alpha  occ. eigenvalues --   -0.43985  -0.43862  -0.41434  -0.39388  -0.37005
 Alpha  occ. eigenvalues --   -0.35267  -0.34224  -0.33241  -0.32823  -0.31270
 Alpha  occ. eigenvalues --   -0.29915  -0.28753  -0.27571  -0.23767  -0.18740
 Alpha  occ. eigenvalues --   -0.13347
 Alpha virt. eigenvalues --    0.02392   0.08567   0.14831   0.19849   0.23006
 Alpha virt. eigenvalues --    0.33164   0.36797   0.40377   0.41201   0.41583
 Alpha virt. eigenvalues --    0.41793   0.41923   0.43023   0.43648   0.44257
 Alpha virt. eigenvalues --    0.45478   0.55956   0.56837   0.61515   0.62567
 Alpha virt. eigenvalues --    0.67173   0.67759   0.71103   0.73027   0.77174
 Alpha virt. eigenvalues --    0.80140
          Condensed to atoms (all electrons):
               1          2          3          4          5          6
     1  C    4.856601   0.583464  -0.031667   0.000870  -0.000009   0.000000
     2  C    0.583464   4.793074   0.423517  -0.031170   0.001025  -0.000009
     3  C   -0.031667   0.423517   4.816185   0.568381  -0.031139   0.000875
     4  C    0.000870  -0.031170   0.568381   4.812722   0.427594  -0.031174
     5  C   -0.000009   0.001025  -0.031139   0.427594   4.814559   0.566590
     6  C    0.000000  -0.000009   0.000875  -0.031174   0.566590   4.814557
     7  C    0.000000   0.000000  -0.000009   0.001019  -0.031126   0.427606
     8  C    0.000000   0.000000   0.000000  -0.000009   0.000875  -0.031182
     9  C    0.000000   0.000000   0.000000   0.000000  -0.000009   0.001025
    10  C    0.000000   0.000000   0.000000   0.000000   0.000000  -0.000009
    11  H    0.390300  -0.025519  -0.005365   0.000047  -0.000001   0.000000
    12  H    0.390695  -0.026101   0.001664  -0.000027   0.000000   0.000000
    13  H   -0.028217   0.390273  -0.022685  -0.003342   0.000008   0.000000
    14  H   -0.003324  -0.022730   0.389861  -0.027462  -0.005227   0.000047
    15  H    0.000047  -0.005248  -0.027518   0.389793  -0.022725  -0.003403
    16  H    0.000000   0.000008  -0.003387  -0.022699   0.389807  -0.027506
    17  H    0.000000  -0.000001   0.000047  -0.005253  -0.027524   0.389823
    18  H    0.000000   0.000000   0.000000   0.000008  -0.003387  -0.022709
    19  H    0.000000   0.000000   0.000000  -0.000001   0.000047  -0.005242
    20  H    0.000000   0.000000   0.000000   0.000000   0.000000   0.000008
    21  H    0.000000   0.000000   0.000000   0.000000   0.000000  -0.000001
    22  H    0.000000   0.000000   0.000000   0.000000   0.000000   0.000000
               7          8          9         10         11         12
     1  C    0.000000   0.000000   0.000000   0.000000   0.390300   0.390695
     2  C    0.000000   0.000000   0.000000   0.000000  -0.025519  -0.026101
     3  C   -0.000009   0.000000   0.000000   0.000000  -0.005365   0.001664
     4  C    0.001019  -0.000009   0.000000   0.000000   0.000047  -0.000027
     5  C   -0.031126   0.000875  -0.000009   0.000000  -0.000001   0.000000
     6  C    0.427606  -0.031182   0.001025  -0.000009   0.000000   0.000000
     7  C    4.812710   0.568365  -0.031140   0.000870   0.000000   0.000000
     8  C    0.568365   4.816175   0.423536  -0.031685   0.000000   0.000000
     9  C   -0.031140   0.423536   4.793060   0.583447   0.000000   0.000000
    10  C    0.000870  -0.031685   0.583447   4.856600   0.000000   0.000000
    11  H    0.000000   0.000000   0.000000   0.000000   0.582033  -0.022571
    12  H    0.000000   0.000000   0.000000   0.000000  -0.022571   0.583510
    13  H    0.000000   0.000000   0.000000   0.000000   0.002149  -0.005234
    14  H   -0.000001   0.000000   0.000000   0.000000   0.000871   0.000011
    15  H    0.000008   0.000000   0.000000   0.000000   0.000002  -0.000002
    16  H   -0.005232   0.000046  -0.000001   0.000000   0.000000   0.000000
    17  H   -0.022721  -0.003403   0.000008   0.000000   0.000000   0.000000
    18  H    0.389779  -0.027499  -0.005233   0.000047   0.000000   0.000000
    19  H   -0.027471   0.389869  -0.022745  -0.003332   0.000000   0.000000
    20  H   -0.003333  -0.022681   0.390272  -0.028208   0.000000   0.000000
    21  H    0.000047  -0.005371  -0.025519   0.390297   0.000000   0.000000
    22  H   -0.000027   0.001664  -0.026096   0.390697   0.000000   0.000000
              13         14         15         16         17         18
     1  C   -0.028217  -0.003324   0.000047   0.000000   0.000000   0.000000
     2  C    0.390273  -0.022730  -0.005248   0.000008  -0.000001   0.000000
     3  C   -0.022685   0.389861  -0.027518  -0.003387   0.000047   0.000000
     4  C   -0.003342  -0.027462   0.389793  -0.022699  -0.005253   0.000008
     5  C    0.000008  -0.005227  -0.022725   0.389807  -0.027524  -0.003387
     6  C    0.000000   0.000047  -0.003403  -0.027506   0.389823  -0.022709
     7  C    0.000000  -0.000001   0.000008  -0.005232  -0.022721   0.389779
     8  C    0.000000   0.000000   0.000000   0.000046  -0.003403  -0.027499
     9  C    0.000000   0.000000   0.000000  -0.000001   0.000008  -0.005233
    10  C    0.000000   0.000000   0.000000   0.000000   0.000000   0.000047
    11  H    0.002149   0.000871   0.000002   0.000000   0.000000   0.000000
    12  H   -0.005234   0.000011  -0.000002   0.000000   0.000000   0.000000
    13  H    0.584195   0.001378   0.000849  -0.000001   0.000000   0.000000
    14  H    0.001378   0.583323   0.002083   0.000850   0.000001   0.000000
    15  H    0.000849   0.002083   0.584042   0.001376   0.000853  -0.000001
    16  H   -0.000001   0.000850   0.001376   0.584005   0.002085   0.000851
    17  H    0.000000   0.000001   0.000853   0.002085   0.584087   0.001377
    18  H    0.000000   0.000000  -0.000001   0.000851   0.001377   0.583967
    19  H    0.000000   0.000000   0.000000   0.000001   0.000851   0.002083
    20  H    0.000000   0.000000   0.000000   0.000000  -0.000001   0.000848
    21  H    0.000000   0.000000   0.000000   0.000000   0.000000   0.000002
    22  H    0.000000   0.000000   0.000000   0.000000   0.000000  -0.000002
              19         20         21         22
     1  C    0.000000   0.000000   0.000000   0.000000
     2  C    0.000000   0.000000   0.000000   0.000000
     3  C    0.000000   0.000000   0.000000   0.000000
     4  C   -0.000001   0.000000   0.000000   0.000000
     5  C    0.000047   0.000000   0.000000   0.000000
     6  C   -0.005242   0.000008  -0.000001   0.000000
     7  C   -0.027471  -0.003333   0.000047  -0.000027
     8  C    0.389869  -0.022681  -0.005371   0.001664
     9  C   -0.022745   0.390272  -0.025519  -0.026096
    10  C   -0.003332  -0.028208   0.390297   0.390697
    11  H    0.000000   0.000000   0.000000   0.000000
    12  H    0.000000   0.000000   0.000000   0.000000
    13  H    0.000000   0.000000   0.000000   0.000000
    14  H    0.000000   0.000000   0.000000   0.000000
    15  H    0.000000   0.000000   0.000000   0.000000
    16  H    0.000001   0.000000   0.000000   0.000000
    17  H    0.000851  -0.000001   0.000000   0.000000
    18  H    0.002083   0.000848   0.000002  -0.000002
    19  H    0.583371   0.001378   0.000872   0.000011
    20  H    0.001378   0.584149   0.002148  -0.005230
    21  H    0.000872   0.002148   0.582042  -0.022574
    22  H    0.000011  -0.005230  -0.022574   0.583490
 Mulliken charges:
               1
     1  C   -0.158761
     2  C   -0.080583
     3  C   -0.078758
     4  C   -0.079298
     5  C   -0.079357
     6  C   -0.079296
     7  C   -0.079343
     8  C   -0.078701
     9  C   -0.080605
    10  C   -0.158723
    11  H    0.078056
    12  H    0.078056
    13  H    0.080627
    14  H    0.080320
    15  H    0.079844
    16  H    0.079795
    17  H    0.079771
    18  H    0.079871
    19  H    0.080310
    20  H    0.080649
    21  H    0.078058
    22  H    0.078067
 Sum of Mulliken charges =   0.00000
 Mulliken charges with hydrogens summed into heavy atoms:
               1
     1  C   -0.002649
     2  C    0.000045
     3  C    0.001562
     4  C    0.000545
     5  C    0.000438
     6  C    0.000475
     7  C    0.000527
     8  C    0.001609
     9  C    0.000045
    10  C   -0.002598
 Electronic spatial extent (au):  <R**2>=           3600.3700
 Charge=              0.0000 electrons
 Dipole moment (field-independent basis, Debye):
    X=              0.0022    Y=             -0.0001    Z=              0.0000  Tot=              0.0022
 Quadrupole moment (field-independent basis, Debye-Ang):
   XX=            -54.0035   YY=            -51.1948   ZZ=            -60.2919
   XY=              0.4159   XZ=              0.0000   YZ=              0.0000
 Traceless Quadrupole moment (field-independent basis, Debye-Ang):
   XX=              1.1599   YY=              3.9686   ZZ=             -5.1285
   XY=              0.4159   XZ=              0.0000   YZ=              0.0000
 Octapole moment (field-independent basis, Debye-Ang**2):
  XXX=              0.0688  YYY=              0.0043  ZZZ=              0.0000  XYY=             -0.0050
  XXY=              0.0089  XXZ=              0.0009  XZZ=              0.0010  YZZ=              0.0001
  YYZ=              0.0000  XYZ=             -0.0003
 Hexadecapole moment (field-independent basis, Debye-Ang**3):
 XXXX=          -4269.6933 YYYY=           -149.5253 ZZZZ=            -48.8586 XXXY=             33.7808
 XXXZ=             -0.0004 YYYX=             -1.9860 YYYZ=              0.0000 ZZZX=              0.0000
 ZZZY=              0.0000 XXYY=           -715.2113 XXZZ=           -809.5239 YYZZ=            -38.1940
 XXYZ=             -0.0002 YYXZ=              0.0000 ZZXY=             -0.1385
 N-N= 4.125057604058D+02 E-N=-1.712329468883D+03  KE= 3.774987765393D+02
 Calling FoFJK, ICntrl=      2127 FMM=F ISym2X=0 I1Cent= 0 IOpClX= 0 NMat=1 NMatS=1 NMatT=0.
 ***** Axes restored to original set *****
 -------------------------------------------------------------------
 Center     Atomic                   Forces (Hartrees/Bohr)
 Number     Number              X              Y              Z
 -------------------------------------------------------------------
      1        6          -0.007923075   -0.001451559    0.000878842
      2        6           0.013181094   -0.007966248    0.010486168
      3        6          -0.024283496    0.000175473   -0.002627047
      4        6           0.028949729    0.000588257    0.002210760
      5        6          -0.029746528   -0.001799304   -0.000896194
      6        6           0.029747689    0.001806297    0.000888091
      7        6          -0.028914661   -0.000599139   -0.002193952
      8        6           0.024269744   -0.000163511    0.002607480
      9        6          -0.013181061    0.007971359   -0.010487670
     10        6           0.007886378    0.001444787   -0.000877671
     11        1           0.001210159   -0.005549490    0.006508087
     12        1          -0.008413433   -0.004772833    0.004654148
     13        1          -0.000592153    0.007607773   -0.008815749
     14        1           0.001312517   -0.006029324    0.007071499
     15        1          -0.001506265    0.006034648   -0.007095261
     16        1           0.001476571   -0.006008495    0.007063261
     17        1          -0.001485275    0.006010335   -0.007065451
     18        1           0.001516575   -0.006024833    0.007085585
     19        1          -0.001333748    0.006022113   -0.007064261
     20        1           0.000632881   -0.007610833    0.008822993
     21        1          -0.001223657    0.005534125   -0.006491460
     22        1           0.008420013    0.004780399   -0.004662198
 -------------------------------------------------------------------
 Cartesian Forces:  Max     0.029747689 RMS     0.010046880

 GradGradGradGradGradGradGradGradGradGradGradGradGradGradGradGradGradGrad
 Berny optimization.
 FormGI is forming the generalized inverse of G from B-inverse, IUseBI=4.
 Internal  Forces:  Max     0.035787140 RMS     0.009649708
 Search for a local minimum.
 Step number   1 out of a maximum of   97
 All quantities printed in internal units (Hartrees-Bohrs-Radians)
 Mixed Optimization -- RFO/linear search
 Second derivative matrix not updated -- first step.
 ITU=  0
     Eigenvalues ---    0.01057   0.01058   0.01062   0.01063   0.01975
     Eigenvalues ---    0.01976   0.01976   0.01976   0.01978   0.01979
     Eigenvalues ---    0.01998   0.01998   0.02886   0.02886   0.02886
     Eigenvalues ---    0.02947   0.02947   0.02947   0.02947   0.16000
     Eigenvalues ---    0.16000   0.16000   0.16000   0.16000   0.16000
     Eigenvalues ---    0.16000   0.16000   0.16000   0.16000   0.16000
     Eigenvalues ---    0.16000   0.22000   0.22000   0.22000   0.22000
     Eigenvalues ---    0.22000   0.22000   0.22000   0.22000   0.34804
     Eigenvalues ---    0.34808   0.34845   0.34852   0.35074   0.35074
     Eigenvalues ---    0.35075   0.35076   0.35076   0.35077   0.35189
     Eigenvalues ---    0.35192   0.35265   0.35268   0.35371   0.35374
     Eigenvalues ---    0.57263   0.57265   0.57274   0.58306   0.58316
 RFO step:  Lambda=-2.17971284D-02 EMin= 1.05741739D-02
 Linear search not attempted -- first point.
 Iteration  1 RMS(Cart)=  0.10255348 RMS(Int)=  0.00056412
 Iteration  2 RMS(Cart)=  0.00089001 RMS(Int)=  0.00000014
 Iteration  3 RMS(Cart)=  0.00000052 RMS(Int)=  0.00000006
 Variable       Old X    -DE/DX   Delta X   Delta X   Delta X     New X
                                 (Linear)    (Quad)   (Total)
    R1        2.52298   0.02164   0.00000   0.03577   0.03577   2.55875
    R2        2.05243   0.00776   0.00000   0.02073   0.02073   2.07316
    R3        2.05076   0.00897   0.00000   0.02390   0.02390   2.07466
    R4        2.79227   0.00442   0.00000   0.01195   0.01195   2.80422
    R5        2.05369   0.00979   0.00000   0.02619   0.02619   2.07987
    R6        2.53165   0.03387   0.00000   0.05696   0.05696   2.58862
    R7        2.05554   0.00834   0.00000   0.02239   0.02239   2.07793
    R8        2.79295  -0.00010   0.00000  -0.00028  -0.00028   2.79267
    R9        2.05552   0.00847   0.00000   0.02273   0.02273   2.07825
   R10        2.53174   0.03579   0.00000   0.06020   0.06020   2.59194
   R11        2.05551   0.00841   0.00000   0.02258   0.02258   2.07810
   R12        2.79288  -0.00008   0.00000  -0.00022  -0.00022   2.79266
   R13        2.05551   0.00842   0.00000   0.02260   0.02260   2.07811
   R14        2.53173   0.03382   0.00000   0.05690   0.05690   2.58863
   R15        2.05554   0.00846   0.00000   0.02270   0.02270   2.07824
   R16        2.79215   0.00446   0.00000   0.01204   0.01204   2.80419
   R17        2.05556   0.00834   0.00000   0.02238   0.02238   2.07793
   R18        2.52306   0.02159   0.00000   0.03569   0.03569   2.55876
   R19        2.05365   0.00980   0.00000   0.02623   0.02623   2.07988
   R20        2.05247   0.00774   0.00000   0.02068   0.02068   2.07315
   R21        2.05071   0.00900   0.00000   0.02396   0.02396   2.07467
    A1        2.11124   0.00115   0.00000   0.00633   0.00633   2.11758
    A2        2.09342   0.00546   0.00000   0.03005   0.03005   2.12347
    A3        2.07852  -0.00661   0.00000  -0.03638  -0.03638   2.04214
    A4        2.11049   0.01264   0.00000   0.05227   0.05227   2.16276
    A5        2.07965   0.00019   0.00000   0.00968   0.00968   2.08933
    A6        2.09304  -0.01283   0.00000  -0.06195  -0.06195   2.03110
    A7        2.10700   0.01347   0.00000   0.05571   0.05571   2.16270
    A8        2.08423  -0.01116   0.00000  -0.05219  -0.05219   2.03205
    A9        2.09195  -0.00231   0.00000  -0.00352  -0.00352   2.08843
   A10        2.10785   0.01347   0.00000   0.05570   0.05570   2.16355
   A11        2.09116  -0.00245   0.00000  -0.00431  -0.00431   2.08686
   A12        2.08418  -0.01101   0.00000  -0.05140  -0.05140   2.03278
   A13        2.10704   0.01354   0.00000   0.05598   0.05598   2.16302
   A14        2.08453  -0.01105   0.00000  -0.05156  -0.05156   2.03297
   A15        2.09162  -0.00248   0.00000  -0.00443  -0.00443   2.08719
   A16        2.10791   0.01339   0.00000   0.05540   0.05540   2.16330
   A17        2.09124  -0.00242   0.00000  -0.00415  -0.00415   2.08710
   A18        2.08404  -0.01098   0.00000  -0.05125  -0.05125   2.03279
   A19        2.10710   0.01359   0.00000   0.05620   0.05620   2.16330
   A20        2.08459  -0.01107   0.00000  -0.05161  -0.05161   2.03298
   A21        2.09149  -0.00252   0.00000  -0.00458  -0.00458   2.08691
   A22        2.10754   0.01338   0.00000   0.05534   0.05534   2.16288
   A23        2.09173  -0.00227   0.00000  -0.00338  -0.00338   2.08835
   A24        2.08392  -0.01111   0.00000  -0.05196  -0.05196   2.03196
   A25        2.11018   0.01268   0.00000   0.05245   0.05245   2.16263
   A26        2.09322  -0.01285   0.00000  -0.06200  -0.06200   2.03122
   A27        2.07978   0.00016   0.00000   0.00956   0.00956   2.08934
   A28        2.11118   0.00115   0.00000   0.00635   0.00635   2.11753
   A29        2.09356   0.00545   0.00000   0.02997   0.02997   2.12352
   A30        2.07845  -0.00660   0.00000  -0.03632  -0.03632   2.04213
    D1       -0.00001   0.00000   0.00000   0.00001   0.00001   0.00000
    D2       -3.14159   0.00000   0.00000   0.00000   0.00000  -3.14159
    D3       -3.14159   0.00000   0.00000   0.00000   0.00000  -3.14159
    D4        0.00001   0.00000   0.00000  -0.00001  -0.00001   0.00001
    D5        3.14159   0.00000   0.00000   0.00000   0.00000   3.14159
    D6        0.00002   0.00000   0.00000  -0.00001  -0.00001   0.00000
    D7       -0.00002   0.00000   0.00000   0.00001   0.00001  -0.00001
    D8       -3.14159   0.00000   0.00000   0.00000   0.00000  -3.14159
    D9       -3.14158   0.00000   0.00000  -0.00001  -0.00001  -3.14159
   D10        0.00000   0.00000   0.00000   0.00000   0.00000   0.00000
   D11       -0.00001   0.00000   0.00000   0.00001   0.00001   0.00000
   D12        3.14157   0.00000   0.00000   0.00001   0.00001   3.14159
   D13        3.14159   0.00000   0.00000   0.00001   0.00001   3.14159
   D14       -0.00001   0.00000   0.00000   0.00000   0.00000   0.00000
   D15        0.00000   0.00000   0.00000   0.00000   0.00000   0.00000
   D16       -3.14159   0.00000   0.00000   0.00000   0.00000   3.14159
   D17       -3.14159   0.00000   0.00000   0.00000   0.00000  -3.14159
   D18       -0.00001   0.00000   0.00000   0.00001   0.00001   0.00000
   D19        0.00000   0.00000   0.00000   0.00000   0.00000   0.00000
   D20        3.14158   0.00000   0.00000   0.00001   0.00001   3.14159
   D21        3.14158   0.00000   0.00000   0.00001   0.00001   3.14158
   D22       -0.00002   0.00000   0.00000   0.00001   0.00001  -0.00001
   D23        0.00000   0.00000   0.00000   0.00000   0.00000   0.00000
   D24        3.14159   0.00000   0.00000   0.00000   0.00000   3.14159
   D25       -3.14158   0.00000   0.00000  -0.00001  -0.00001  -3.14159
   D26        0.00000   0.00000   0.00000   0.00000   0.00000   0.00000
   D27        0.00001   0.00000   0.00000  -0.00001  -0.00001   0.00001
   D28        3.14159   0.00000   0.00000   0.00000   0.00000   3.14159
   D29        3.14159   0.00000   0.00000   0.00000   0.00000   3.14159
   D30       -0.00002   0.00000   0.00000   0.00001   0.00001  -0.00001
   D31        0.00001   0.00000   0.00000  -0.00001  -0.00001   0.00000
   D32        3.14159   0.00000   0.00000   0.00000   0.00000   3.14159
   D33       -0.00002   0.00000   0.00000   0.00001   0.00001   0.00000
   D34        3.14159   0.00000   0.00000   0.00000   0.00000   3.14159
   D35        3.14159   0.00000   0.00000   0.00000   0.00000  -3.14159
   D36        0.00001   0.00000   0.00000  -0.00001  -0.00001   0.00000
         Item               Value     Threshold  Converged?
 Maximum Force            0.035787     0.000015     NO 
 RMS     Force            0.009650     0.000010     NO 
 Maximum Displacement     0.274085     0.000060     NO 
 RMS     Displacement     0.101923     0.000040     NO 
 Predicted change in Energy=-1.168320D-02
 GradGradGradGradGradGradGradGradGradGradGradGradGradGradGradGradGradGrad

                          Input orientation:                          
 ---------------------------------------------------------------------
 Center     Atomic      Atomic             Coordinates (Angstroms)
 Number     Number       Type             X           Y           Z
 ---------------------------------------------------------------------
      1          6           0        1.100380   -0.288267   -0.274652
      2          6           0        1.704656    0.535881   -1.162929
      3          6           0        3.173249    0.732946   -1.243216
      4          6           0        3.784513    1.566729   -2.141890
      5          6           0        5.246898    1.763782   -2.222789
      6          6           0        5.858304    2.598814   -3.122891
      7          6           0        7.320630    2.796129   -3.204104
      8          6           0        7.931250    3.630084   -4.103063
      9          6           0        9.399697    3.827812   -4.184146
     10          6           0       10.002967    4.652227   -5.072863
     11          1           0        1.682207   -0.869018    0.451823
     12          1           0        0.009197   -0.406174   -0.247819
     13          1           0        1.094903    1.106149   -1.880122
     14          1           0        3.783297    0.163636   -0.527096
     15          1           0        3.172935    2.135421   -2.857458
     16          1           0        5.858608    1.195218   -1.507355
     17          1           0        5.246504    3.167336   -3.838291
     18          1           0        7.932640    2.227661   -2.488736
     19          1           0        7.320640    4.199111   -4.818934
     20          1           0       10.010206    3.257925   -3.467291
     21          1           0        9.420330    5.232590   -5.798994
     22          1           0       11.094070    4.770758   -5.100437
 ---------------------------------------------------------------------
                    Distance matrix (angstroms):
                    1          2          3          4          5
     1  C    0.000000
     2  C    1.354033   0.000000
     3  C    2.505549   1.483929   0.000000
     4  C    3.759276   2.519289   1.369837   0.000000
     5  C    5.019935   3.895962   2.514400   1.477818   0.000000
     6  C    6.251843   5.034871   3.771493   2.515586   1.371598
     7  C    7.535694   6.388605   5.030166   3.891509   2.515767
     8  C    8.756197   7.549103   6.261846   5.029818   3.771507
     9  C   10.055093   8.898214   7.549564   6.388552   5.035164
    10  C   11.255548  10.054543   8.756255   7.535255   6.251898
    11  H    1.097069   2.140484   2.768150   4.132784   5.176119
    12  H    1.097862   2.144639   3.507083   4.661851   6.003559
    13  H    2.126490   1.100622   2.205550   2.741288   4.217697
    14  H    2.732396   2.205357   1.099592   2.139213   2.752811
    15  H    4.103734   2.754233   2.138390   1.099761   2.200509
    16  H    5.134298   4.220032   2.737630   2.200574   1.099682
    17  H    6.467694   5.160117   4.118138   2.752660   2.140049
    18  H    7.609983   6.588450   5.141722   4.214747   2.738453
    19  H    8.915082   7.637074   6.480811   5.157537   4.119612
    20  H   10.107097   9.038902   7.620105   6.586052   5.144934
    21  H   11.411388  10.153019   8.945833   7.653455   6.499185
    22  H   12.196548  11.027205   9.691310   8.511665   7.177199
                    6          7          8          9         10
     6  C    0.000000
     7  C    1.477811   0.000000
     8  C    2.514232   1.369842   0.000000
     9  C    3.895916   2.519399   1.483916   0.000000
    10  C    5.019674   3.759294   2.505453   1.354036   0.000000
    11  H    6.499556   7.654470   8.946477  10.154411  11.412333
    12  H    7.176910   8.511839   9.690883  11.027365  12.196061
    13  H    5.144173   6.585487   7.618882   9.038008  10.105537
    14  H    4.119939   5.158402   6.481459   7.638333   8.916038
    15  H    2.737954   4.214269   5.140731   6.587628   7.608657
    16  H    2.140103   2.753067   4.118509   5.160917   6.468343
    17  H    1.099687   2.200451   2.737170   4.219579   5.133518
    18  H    2.200631   1.099756   2.138420   2.754478   4.103959
    19  H    2.752442   2.139167   1.099594   2.205288   2.732155
    20  H    4.217977   2.741595   2.205621   1.100624   2.126498
    21  H    5.175551   4.132619   2.767953   2.140459   1.097066
    22  H    6.003439   4.661984   3.507039   2.144677   1.097869
                   11         12         13         14         15
    11  H    0.000000
    12  H    1.871546   0.000000
    13  H    3.111941   2.475942   0.000000
    14  H    2.537565   3.827076   3.153803   0.000000
    15  H    4.711716   4.824848   2.516507   3.113048   0.000000
    16  H    5.053887   6.194069   4.779098   2.516343   3.149539
    17  H    6.884871   7.286347   5.031771   4.703956   2.515267
    18  H    7.569955   8.645215   6.955779   5.032423   4.774856
    19  H    9.233566   9.775527   7.547373   6.871515   5.030870
    20  H   10.086955  11.127030   9.307624   7.549421   6.955586
    21  H   11.669656  12.295553  10.084533   9.233815   7.568027
    22  H   12.297066  13.161419  11.125787   9.776933   8.644092
                   16         17         18         19         20
    16  H    0.000000
    17  H    3.114030   0.000000
    18  H    2.516080   3.149541   0.000000
    19  H    4.703984   2.515603   3.113033   0.000000
    20  H    5.033078   4.778985   2.517000   3.153813   0.000000
    21  H    6.885085   5.052766   4.711754   2.537182   3.111928
    22  H    7.287304   6.193384   4.825242   3.826852   2.476004
                   21         22
    21  H    0.000000
    22  H    1.871544   0.000000
 Stoichiometry    C10H12
 Framework group  C1[X(C10H12)]
 Deg. of freedom    60
 Full point group                 C1      NOp   1
 Largest Abelian subgroup         C1      NOp   1
 Largest concise Abelian subgroup C1      NOp   1
                         Standard orientation:                         
 ---------------------------------------------------------------------
 Center     Atomic      Atomic             Coordinates (Angstroms)
 Number     Number       Type             X           Y           Z
 ---------------------------------------------------------------------
      1          6           0       -5.623370    0.224735    0.000014
      2          6           0       -4.429650   -0.414357    0.000004
      3          6           0       -3.118441    0.280462   -0.000001
      4          6           0       -1.910823   -0.366154   -0.000008
      5          6           0       -0.604430    0.324703   -0.000009
      6          6           0        0.604399   -0.323381   -0.000013
      7          6           0        1.910979    0.367108   -0.000010
      8          6           0        3.118259   -0.280149   -0.000003
      9          6           0        4.429947    0.413740    0.000004
     10          6           0        5.623135   -0.226350    0.000016
     11          1           0       -5.683931    1.320132    0.000020
     12          1           0       -6.572510   -0.327021    0.000019
     13          1           0       -4.399955   -1.514579   -0.000003
     14          1           0       -3.147064    1.379681    0.000007
     15          1           0       -1.883925   -1.465586   -0.000011
     16          1           0       -0.631112    1.424060   -0.000007
     17          1           0        0.630978   -1.422747   -0.000013
     18          1           0        1.884609    1.466547   -0.000016
     19          1           0        3.146207   -1.379388    0.000004
     20          1           0        4.401162    1.513988   -0.000004
     21          1           0        5.682735   -1.321796    0.000024
     22          1           0        6.572769    0.324569    0.000020
 ---------------------------------------------------------------------
 Rotational constants (GHZ):     15.0547459      0.2841163      0.2788537
 Standard basis: STO-3G (5D, 7F)
 There are    62 symmetry adapted cartesian basis functions of A   symmetry.
 There are    62 symmetry adapted basis functions of A   symmetry.
    62 basis functions,   186 primitive gaussians,    62 cartesian basis functions
    36 alpha electrons       36 beta electrons
       nuclear repulsion energy       404.9346680654 Hartrees.
 NAtoms=   22 NActive=   22 NUniq=   22 SFac= 1.00D+00 NAtFMM=   60 NAOKFM=F Big=F
 Integral buffers will be    131072 words long.
 Raffenetti 2 integral format.
 Two-electron integral symmetry is turned on.
 One-electron integrals computed using PRISM.
 NBasis=    62 RedAO= T EigKep=  1.96D-01  NBF=    62
 NBsUse=    62 1.00D-06 EigRej= -1.00D+00 NBFU=    62
 Initial guess from the checkpoint file:  "/data/scratch/Gau-51407.chk"
 B after Tr=     0.000000    0.000000    0.000000
         Rot=    1.000000    0.000000    0.000000   -0.000774 Ang=   0.09 deg.
 ExpMin= 1.69D-01 ExpMax= 7.16D+01 ExpMxC= 7.16D+01 IAcc=1 IRadAn=         1 AccDes= 0.00D+00
 Harris functional with IExCor=  402 and IRadAn=       1 diagonalized for initial guess.
 HarFok:  IExCor=  402 AccDes= 0.00D+00 IRadAn=         1 IDoV= 1 UseB2=F ITyADJ=14
 ICtDFT=  3500011 ScaDFX=  1.000000  1.000000  1.000000  1.000000
 FoFCou: FMM=F IPFlag=           0 FMFlag=      100000 FMFlg1=           0
         NFxFlg=           0 DoJE=T BraDBF=F KetDBF=T FulRan=T
         wScrn=  0.000000 ICntrl=     500 IOpCl=  0 I1Cent=   200000004 NGrid=           0
         NMat0=    1 NMatS0=      1 NMatT0=    0 NMatD0=    1 NMtDS0=    0 NMtDT0=    0
 Petite list used in FoFCou.
 Keep R1 ints in memory in canonical form, NReq=2821695.
 Requested convergence on RMS density matrix=1.00D-08 within 128 cycles.
 Requested convergence on MAX density matrix=1.00D-06.
 Requested convergence on             energy=1.00D-06.
 No special actions if energy rises.
 Integral accuracy reduced to 1.0D-05 until final iterations.
 Initial convergence to 1.0D-05 achieved.  Increase integral accuracy.
 SCF Done:  E(RB3LYP) =  -383.444943513     A.U. after   11 cycles
            NFock= 11  Conv=0.71D-08     -V/T= 2.0169
 Calling FoFJK, ICntrl=      2127 FMM=F ISym2X=0 I1Cent= 0 IOpClX= 0 NMat=1 NMatS=1 NMatT=0.
 ***** Axes restored to original set *****
 -------------------------------------------------------------------
 Center     Atomic                   Forces (Hartrees/Bohr)
 Number     Number              X              Y              Z
 -------------------------------------------------------------------
      1        6           0.003009523    0.004666818   -0.005071467
      2        6           0.001425383   -0.003184289    0.003807912
      3        6          -0.002151033    0.003748745   -0.004530085
      4        6           0.004402242   -0.002916703    0.003796234
      5        6          -0.004833304    0.002449079   -0.003300848
      6        6           0.004832437   -0.002444196    0.003294822
      7        6          -0.004399644    0.002921828   -0.003801411
      8        6           0.002149308   -0.003748607    0.004528424
      9        6          -0.001420658    0.003185518   -0.003807463
     10        6          -0.002994854   -0.004667596    0.005073192
     11        1          -0.000803431   -0.000215536    0.000167917
     12        1           0.001438887   -0.000189085    0.000361372
     13        1           0.000356097    0.000050451   -0.000022787
     14        1           0.000707605   -0.000035121    0.000111382
     15        1          -0.000783301   -0.000024483   -0.000049809
     16        1           0.000837690    0.000046928    0.000029598
     17        1          -0.000840279   -0.000050200   -0.000025958
     18        1           0.000778284    0.000020064    0.000054308
     19        1          -0.000707358    0.000034568   -0.000110253
     20        1          -0.000362547   -0.000052160    0.000023649
     21        1           0.000802903    0.000218329   -0.000171078
     22        1          -0.001443953    0.000185646   -0.000357651
 -------------------------------------------------------------------
 Cartesian Forces:  Max     0.005073192 RMS     0.002521727

 GradGradGradGradGradGradGradGradGradGradGradGradGradGradGradGradGradGrad
 Berny optimization.
 Using GEDIIS/GDIIS optimizer.
 FormGI is forming the generalized inverse of G from B-inverse, IUseBI=4.
 Internal  Forces:  Max     0.008117012 RMS     0.002383802
 Search for a local minimum.
 Step number   2 out of a maximum of   97
 All quantities printed in internal units (Hartrees-Bohrs-Radians)
 Mixed Optimization -- RFO/linear search
 Update second derivatives using D2CorX and points    1    2
 DE= -9.41D-03 DEPred=-1.17D-02 R= 8.06D-01
 TightC=F SS=  1.41D+00  RLast= 2.68D-01 DXNew= 5.0454D-01 8.0495D-01
 Trust test= 8.06D-01 RLast= 2.68D-01 DXMaxT set to 5.05D-01
 ITU=  1  0
 Use linear search instead of GDIIS.
     Eigenvalues ---    0.01057   0.01058   0.01062   0.01063   0.01998
     Eigenvalues ---    0.01998   0.01998   0.01998   0.02002   0.02002
     Eigenvalues ---    0.02034   0.02034   0.02886   0.02886   0.02886
     Eigenvalues ---    0.02947   0.02947   0.02947   0.02947   0.15795
     Eigenvalues ---    0.16000   0.16000   0.16000   0.16000   0.16000
     Eigenvalues ---    0.16000   0.16000   0.16000   0.16000   0.16000
     Eigenvalues ---    0.16268   0.21939   0.22000   0.22000   0.22000
     Eigenvalues ---    0.22000   0.22000   0.22000   0.22317   0.33763
     Eigenvalues ---    0.34806   0.34844   0.34851   0.35074   0.35075
     Eigenvalues ---    0.35075   0.35076   0.35076   0.35144   0.35190
     Eigenvalues ---    0.35241   0.35266   0.35326   0.35373   0.36787
     Eigenvalues ---    0.57254   0.57270   0.57899   0.58311   0.67299
 RFO step:  Lambda=-6.53040985D-04 EMin= 1.05741739D-02
 Quartic linear search produced a step of -0.10838.
 Iteration  1 RMS(Cart)=  0.01982256 RMS(Int)=  0.00000852
 Iteration  2 RMS(Cart)=  0.00000871 RMS(Int)=  0.00000001
 Iteration  3 RMS(Cart)=  0.00000000 RMS(Int)=  0.00000001
 Variable       Old X    -DE/DX   Delta X   Delta X   Delta X     New X
                                 (Linear)    (Quad)   (Total)
    R1        2.55875  -0.00720  -0.00388  -0.00610  -0.00998   2.54877
    R2        2.07316  -0.00020  -0.00225   0.00234   0.00009   2.07325
    R3        2.07466  -0.00140  -0.00259  -0.00025  -0.00284   2.07182
    R4        2.80422  -0.00556  -0.00130  -0.01257  -0.01386   2.79035
    R5        2.07987  -0.00016  -0.00284   0.00319   0.00036   2.08023
    R6        2.58862  -0.00812  -0.00617  -0.00483  -0.01100   2.57761
    R7        2.07793   0.00048  -0.00243   0.00430   0.00187   2.07980
    R8        2.79267  -0.00786   0.00003  -0.02013  -0.02010   2.77257
    R9        2.07825   0.00045  -0.00246   0.00427   0.00181   2.08006
   R10        2.59194  -0.00736  -0.00652  -0.00322  -0.00974   2.58220
   R11        2.07810   0.00046  -0.00245   0.00427   0.00182   2.07992
   R12        2.79266  -0.00786   0.00002  -0.02011  -0.02009   2.77257
   R13        2.07811   0.00046  -0.00245   0.00426   0.00181   2.07992
   R14        2.58863  -0.00812  -0.00617  -0.00484  -0.01101   2.57762
   R15        2.07824   0.00046  -0.00246   0.00428   0.00182   2.08005
   R16        2.80419  -0.00556  -0.00130  -0.01254  -0.01384   2.79035
   R17        2.07793   0.00048  -0.00242   0.00430   0.00187   2.07980
   R18        2.55876  -0.00720  -0.00387  -0.00611  -0.00998   2.54878
   R19        2.07988  -0.00016  -0.00284   0.00319   0.00035   2.08023
   R20        2.07315  -0.00020  -0.00224   0.00234   0.00010   2.07326
   R21        2.07467  -0.00141  -0.00260  -0.00025  -0.00285   2.07182
    A1        2.11758   0.00078  -0.00069   0.00518   0.00450   2.12207
    A2        2.12347   0.00016  -0.00326   0.00503   0.00177   2.12525
    A3        2.04214  -0.00093   0.00394  -0.01022  -0.00627   2.03587
    A4        2.16276  -0.00019  -0.00566   0.00642   0.00076   2.16352
    A5        2.08933   0.00043  -0.00105   0.00362   0.00257   2.09190
    A6        2.03110  -0.00024   0.00671  -0.01005  -0.00333   2.02777
    A7        2.16270  -0.00078  -0.00604   0.00451  -0.00152   2.16118
    A8        2.03205   0.00094   0.00566  -0.00257   0.00309   2.03513
    A9        2.08843  -0.00016   0.00038  -0.00194  -0.00156   2.08687
   A10        2.16355  -0.00073  -0.00604   0.00471  -0.00133   2.16222
   A11        2.08686  -0.00030   0.00047  -0.00278  -0.00232   2.08454
   A12        2.03278   0.00103   0.00557  -0.00193   0.00364   2.03642
   A13        2.16302  -0.00079  -0.00607   0.00454  -0.00153   2.16149
   A14        2.03297   0.00112   0.00559  -0.00148   0.00410   2.03708
   A15        2.08719  -0.00034   0.00048  -0.00305  -0.00257   2.08462
   A16        2.16330  -0.00082  -0.00600   0.00430  -0.00170   2.16160
   A17        2.08710  -0.00032   0.00045  -0.00297  -0.00252   2.08458
   A18        2.03279   0.00115   0.00555  -0.00134   0.00421   2.03700
   A19        2.16330  -0.00070  -0.00609   0.00491  -0.00118   2.16212
   A20        2.03298   0.00101   0.00559  -0.00207   0.00353   2.03650
   A21        2.08691  -0.00031   0.00050  -0.00284  -0.00235   2.08456
   A22        2.16288  -0.00081  -0.00600   0.00437  -0.00163   2.16125
   A23        2.08835  -0.00015   0.00037  -0.00188  -0.00151   2.08683
   A24        2.03196   0.00095   0.00563  -0.00249   0.00314   2.03510
   A25        2.16263  -0.00018  -0.00568   0.00652   0.00083   2.16346
   A26        2.03122  -0.00026   0.00672  -0.01012  -0.00340   2.02782
   A27        2.08934   0.00043  -0.00104   0.00361   0.00257   2.09191
   A28        2.11753   0.00078  -0.00069   0.00521   0.00452   2.12206
   A29        2.12352   0.00015  -0.00325   0.00499   0.00174   2.12526
   A30        2.04213  -0.00093   0.00394  -0.01020  -0.00626   2.03587
    D1        0.00000   0.00000   0.00000   0.00000   0.00000   0.00000
    D2       -3.14159   0.00000   0.00000   0.00000   0.00000   3.14159
    D3       -3.14159   0.00000   0.00000   0.00000   0.00000  -3.14159
    D4        0.00001   0.00000   0.00000  -0.00001  -0.00001   0.00000
    D5        3.14159   0.00000   0.00000   0.00000   0.00000   3.14159
    D6        0.00000   0.00000   0.00000  -0.00001  -0.00001   0.00000
    D7       -0.00001   0.00000   0.00000   0.00001   0.00001   0.00000
    D8       -3.14159   0.00000   0.00000   0.00000   0.00000   3.14159
    D9       -3.14159   0.00000   0.00000  -0.00001   0.00000   3.14159
   D10        0.00000   0.00000   0.00000   0.00000   0.00000   0.00000
   D11        0.00000   0.00000   0.00000   0.00000   0.00000   0.00000
   D12        3.14159   0.00000   0.00000   0.00001   0.00001  -3.14159
   D13        3.14159   0.00000   0.00000   0.00000   0.00000  -3.14159
   D14        0.00000   0.00000   0.00000   0.00000   0.00000   0.00000
   D15        0.00000   0.00000   0.00000   0.00000   0.00000   0.00000
   D16        3.14159   0.00000   0.00000   0.00000   0.00000   3.14159
   D17       -3.14159   0.00000   0.00000   0.00000   0.00000  -3.14159
   D18        0.00000   0.00000   0.00000   0.00000   0.00000   0.00000
   D19        0.00000   0.00000   0.00000   0.00000   0.00000   0.00000
   D20        3.14159   0.00000   0.00000   0.00000   0.00000  -3.14159
   D21        3.14158   0.00000   0.00000   0.00001   0.00001   3.14159
   D22       -0.00001   0.00000   0.00000   0.00001   0.00001   0.00000
   D23        0.00000   0.00000   0.00000   0.00000   0.00000   0.00000
   D24        3.14159   0.00000   0.00000   0.00000   0.00000   3.14159
   D25       -3.14159   0.00000   0.00000   0.00000   0.00000  -3.14159
   D26        0.00000   0.00000   0.00000   0.00000   0.00000   0.00000
   D27        0.00001   0.00000   0.00000  -0.00001   0.00000   0.00000
   D28        3.14159   0.00000   0.00000   0.00000   0.00000  -3.14159
   D29        3.14159   0.00000   0.00000   0.00000   0.00000   3.14159
   D30       -0.00001   0.00000   0.00000   0.00001   0.00001   0.00000
   D31        0.00000   0.00000   0.00000   0.00000   0.00000   0.00000
   D32        3.14159   0.00000   0.00000   0.00000   0.00000   3.14159
   D33        0.00000   0.00000   0.00000   0.00001   0.00000   0.00000
   D34        3.14159   0.00000   0.00000   0.00000   0.00000  -3.14159
   D35       -3.14159   0.00000   0.00000   0.00000   0.00000   3.14159
   D36        0.00000   0.00000   0.00000  -0.00001   0.00000   0.00000
         Item               Value     Threshold  Converged?
 Maximum Force            0.008117     0.000015     NO 
 RMS     Force            0.002384     0.000010     NO 
 Maximum Displacement     0.049840     0.000060     NO 
 RMS     Displacement     0.019819     0.000040     NO 
 Predicted change in Energy=-4.640447D-04
 GradGradGradGradGradGradGradGradGradGradGradGradGradGradGradGradGradGrad

                          Input orientation:                          
 ---------------------------------------------------------------------
 Center     Atomic      Atomic             Coordinates (Angstroms)
 Number     Number       Type             X           Y           Z
 ---------------------------------------------------------------------
      1          6           0        1.122789   -0.275425   -0.287180
      2          6           0        1.726777    0.544924   -1.171126
      3          6           0        3.188290    0.740097   -1.249951
      4          6           0        3.796268    1.570524   -2.145099
      5          6           0        5.248271    1.765440   -2.224575
      6          6           0        5.856435    2.597593   -3.121691
      7          6           0        7.308417    2.792615   -3.201293
      8          6           0        7.916134    3.623115   -4.096554
      9          6           0        9.377591    3.818561   -4.175699
     10          6           0        9.981167    4.639024   -5.059824
     11          1           0        1.698866   -0.858850    0.441806
     12          1           0        0.033104   -0.393207   -0.260334
     13          1           0        1.120846    1.117193   -1.890251
     14          1           0        3.800827    0.171230   -0.534081
     15          1           0        3.181531    2.138417   -2.860065
     16          1           0        5.863561    1.197879   -1.509934
     17          1           0        5.241107    3.165138   -3.836316
     18          1           0        7.923329    2.224812   -2.486409
     19          1           0        7.303366    4.191870   -4.812318
     20          1           0        9.983831    3.246445   -3.456715
     21          1           0        9.404755    5.222294   -5.788669
     22          1           0       11.070818    4.757062   -5.086969
 ---------------------------------------------------------------------
                    Distance matrix (angstroms):
                    1          2          3          4          5
     1  C    0.000000
     2  C    1.348753   0.000000
     3  C    2.494896   1.476592   0.000000
     4  C    3.742576   2.506645   1.364014   0.000000
     5  C    4.993819   3.873026   2.498948   1.467181   0.000000
     6  C    6.220618   5.007218   3.751360   2.500579   1.366441
     7  C    7.494459   6.350464   4.999601   3.865779   2.500654
     8  C    8.709734   7.506099   6.226351   4.999461   3.751367
     9  C   10.001153   8.847548   7.506290   6.350447   5.007342
    10  C   11.198250  10.000929   8.709761   7.494284   6.220646
    11  H    1.097119   2.138436   2.763522   4.122260   5.157010
    12  H    1.096361   2.139664   3.495556   4.644349   5.976283
    13  H    2.123493   1.100811   2.196931   2.725497   4.191375
    14  H    2.726233   2.201626   1.100583   2.133875   2.737584
    15  H    4.084702   2.740081   2.132560   1.100718   2.194168
    16  H    5.112795   4.201681   2.726579   2.194539   1.100645
    17  H    6.433847   5.130231   4.096849   2.736891   2.134693
    18  H    7.571997   6.553567   5.114079   4.192520   2.726815
    19  H    8.867533   7.593210   6.445079   5.126915   4.099682
    20  H   10.048263   8.983377   7.571722   6.543317   5.112444
    21  H   11.361437  10.106969   8.906991   7.620115   6.475258
    22  H   12.137841  10.972102   9.643286   8.469221   7.144589
                    6          7          8          9         10
     6  C    0.000000
     7  C    1.467181   0.000000
     8  C    2.498882   1.364017   0.000000
     9  C    3.873013   2.506694   1.476590   0.000000
    10  C    4.993717   3.742587   2.494859   1.348755   0.000000
    11  H    6.475407   7.620526   8.907252  10.107539  11.361825
    12  H    7.144469   8.469290   9.643110  10.972169  12.137644
    13  H    5.112126   6.543080   7.571219   8.983011  10.047625
    14  H    4.099816   5.127267   6.445345   7.593728   8.867927
    15  H    2.726611   4.192326   5.113678   6.553239   7.571461
    16  H    2.134716   2.737058   4.097002   5.130563   6.434118
    17  H    1.100647   2.194492   2.726396   4.201504   5.112483
    18  H    2.194219   1.100716   2.132573   2.740185   4.084799
    19  H    2.737434   2.133856   1.100584   2.201602   2.726137
    20  H    4.191497   2.725628   2.196963   1.100810   2.123498
    21  H    5.156782   4.122195   2.763444   2.138429   1.097119
    22  H    5.976237   4.644404   3.495538   2.139676   1.096361
                   11         12         13         14         15
    11  H    0.000000
    12  H    1.866705   0.000000
    13  H    3.110843   2.474089   0.000000
    14  H    2.536072   3.819589   3.149022   0.000000
    15  H    4.699389   4.804197   2.495969   3.108626   0.000000
    16  H    5.038264   6.171490   4.758623   2.502233   3.146546
    17  H    6.858738   7.250708   4.995778   4.684299   2.499816
    18  H    7.538392   8.606107   6.917803   5.002380   4.757282
    19  H    9.193803   9.726263   7.497711   6.836420   5.001749
    20  H   10.034568  11.067108   9.248785   7.498552   6.917732
    21  H   11.626687  12.244353  10.033577   9.193908   7.537608
    22  H   12.244970  13.101633  11.066598   9.726840   8.605652
                   16         17         18         19         20
    16  H    0.000000
    17  H    3.109600   0.000000
    18  H    2.500148   3.146550   0.000000
    19  H    4.684310   2.501933   3.108621   0.000000
    20  H    4.996319   4.758586   2.496176   3.149029   0.000000
    21  H    6.858829   5.037810   4.699409   2.535916   3.110839
    22  H    7.251102   6.171214   4.804361   3.819498   2.474112
                   21         22
    21  H    0.000000
    22  H    1.866706   0.000000
 Stoichiometry    C10H12
 Framework group  C1[X(C10H12)]
 Deg. of freedom    60
 Full point group                 C1      NOp   1
 Largest Abelian subgroup         C1      NOp   1
 Largest concise Abelian subgroup C1      NOp   1
                         Standard orientation:                         
 ---------------------------------------------------------------------
 Center     Atomic      Atomic             Coordinates (Angstroms)
 Number     Number       Type             X           Y           Z
 ---------------------------------------------------------------------
      1          6           0       -5.594743    0.222309    0.000001
      2          6           0       -4.404490   -0.412067    0.000000
      3          6           0       -3.100532    0.280765    0.000001
      4          6           0       -1.898314   -0.363601    0.000000
      5          6           0       -0.601949    0.323465   -0.000001
      6          6           0        0.601934   -0.322930   -0.000002
      7          6           0        1.898376    0.363988   -0.000002
      8          6           0        3.100458   -0.280637   -0.000001
      9          6           0        4.404614    0.411820    0.000000
     10          6           0        5.594650   -0.222966    0.000003
     11          1           0       -5.662281    1.317347    0.000002
     12          1           0       -6.542532   -0.328783    0.000001
     13          1           0       -4.369902   -1.512335   -0.000001
     14          1           0       -3.127008    1.381030    0.000001
     15          1           0       -1.874400   -1.464059   -0.000002
     16          1           0       -0.625142    1.423865    0.000000
     17          1           0        0.625084   -1.423334   -0.000003
     18          1           0        1.874676    1.464449   -0.000003
     19          1           0        3.126657   -1.380909    0.000000
     20          1           0        4.370398    1.512098   -0.000001
     21          1           0        5.661793   -1.318029    0.000004
     22          1           0        6.542639    0.327785    0.000004
 ---------------------------------------------------------------------
 Rotational constants (GHZ):     15.1263179      0.2871975      0.2818462
 Standard basis: STO-3G (5D, 7F)
 There are    62 symmetry adapted cartesian basis functions of A   symmetry.
 There are    62 symmetry adapted basis functions of A   symmetry.
    62 basis functions,   186 primitive gaussians,    62 cartesian basis functions
    36 alpha electrons       36 beta electrons
       nuclear repulsion energy       406.7330538122 Hartrees.
 NAtoms=   22 NActive=   22 NUniq=   22 SFac= 1.00D+00 NAtFMM=   60 NAOKFM=F Big=F
 Integral buffers will be    131072 words long.
 Raffenetti 2 integral format.
 Two-electron integral symmetry is turned on.
 One-electron integrals computed using PRISM.
 NBasis=    62 RedAO= T EigKep=  1.94D-01  NBF=    62
 NBsUse=    62 1.00D-06 EigRej= -1.00D+00 NBFU=    62
 Initial guess from the checkpoint file:  "/data/scratch/Gau-51407.chk"
 B after Tr=     0.000000    0.000000    0.000000
         Rot=    1.000000    0.000000    0.000000   -0.000045 Ang=  -0.01 deg.
 ExpMin= 1.69D-01 ExpMax= 7.16D+01 ExpMxC= 7.16D+01 IAcc=1 IRadAn=         1 AccDes= 0.00D+00
 Harris functional with IExCor=  402 and IRadAn=       1 diagonalized for initial guess.
 HarFok:  IExCor=  402 AccDes= 0.00D+00 IRadAn=         1 IDoV= 1 UseB2=F ITyADJ=14
 ICtDFT=  3500011 ScaDFX=  1.000000  1.000000  1.000000  1.000000
 FoFCou: FMM=F IPFlag=           0 FMFlag=      100000 FMFlg1=           0
         NFxFlg=           0 DoJE=T BraDBF=F KetDBF=T FulRan=T
         wScrn=  0.000000 ICntrl=     500 IOpCl=  0 I1Cent=   200000004 NGrid=           0
         NMat0=    1 NMatS0=      1 NMatT0=    0 NMatD0=    1 NMtDS0=    0 NMtDT0=    0
 Petite list used in FoFCou.
 Keep R1 ints in memory in canonical form, NReq=2821695.
 Requested convergence on RMS density matrix=1.00D-08 within 128 cycles.
 Requested convergence on MAX density matrix=1.00D-06.
 Requested convergence on             energy=1.00D-06.
 No special actions if energy rises.
 Integral accuracy reduced to 1.0D-05 until final iterations.
 Initial convergence to 1.0D-05 achieved.  Increase integral accuracy.
 SCF Done:  E(RB3LYP) =  -383.445415907     A.U. after   11 cycles
            NFock= 11  Conv=0.22D-08     -V/T= 2.0167
 Calling FoFJK, ICntrl=      2127 FMM=F ISym2X=0 I1Cent= 0 IOpClX= 0 NMat=1 NMatS=1 NMatT=0.
 ***** Axes restored to original set *****
 -------------------------------------------------------------------
 Center     Atomic                   Forces (Hartrees/Bohr)
 Number     Number              X              Y              Z
 -------------------------------------------------------------------
      1        6           0.000132610    0.000352795   -0.000392807
      2        6          -0.000255979   -0.000048859    0.000030582
      3        6          -0.000199418   -0.000190556    0.000199591
      4        6           0.000297994    0.000198601   -0.000198687
      5        6          -0.000568918   -0.000321842    0.000313726
      6        6           0.000569962    0.000323360   -0.000315292
      7        6          -0.000296384   -0.000195960    0.000196026
      8        6           0.000199012    0.000190190   -0.000198928
      9        6           0.000256619    0.000050545   -0.000032681
     10        6          -0.000131152   -0.000353210    0.000393496
     11        1          -0.000326452    0.000040187   -0.000078835
     12        1           0.000155156   -0.000142846    0.000179913
     13        1           0.000108858   -0.000219710    0.000263751
     14        1           0.000025559    0.000304627   -0.000348164
     15        1          -0.000039383   -0.000323939    0.000368816
     16        1           0.000063467    0.000347475   -0.000393680
     17        1          -0.000064205   -0.000348828    0.000395008
     18        1           0.000037157    0.000321941   -0.000366897
     19        1          -0.000024930   -0.000304878    0.000348380
     20        1          -0.000111052    0.000218610   -0.000262691
     21        1           0.000327146   -0.000039864    0.000078504
     22        1          -0.000155669    0.000142162   -0.000179131
 -------------------------------------------------------------------
 Cartesian Forces:  Max     0.000569962 RMS     0.000260080

 GradGradGradGradGradGradGradGradGradGradGradGradGradGradGradGradGradGrad
 Berny optimization.
 Using GEDIIS/GDIIS optimizer.
 FormGI is forming the generalized inverse of G from B-inverse, IUseBI=4.
 Internal  Forces:  Max     0.000482282 RMS     0.000211329
 Search for a local minimum.
 Step number   3 out of a maximum of   97
 All quantities printed in internal units (Hartrees-Bohrs-Radians)
 Mixed Optimization -- En-DIIS/RFO-DIIS
 Update second derivatives using D2CorX and points    1    2    3
 DE= -4.72D-04 DEPred=-4.64D-04 R= 1.02D+00
 TightC=F SS=  1.41D+00  RLast= 4.53D-02 DXNew= 8.4853D-01 1.3578D-01
 Trust test= 1.02D+00 RLast= 4.53D-02 DXMaxT set to 5.05D-01
 ITU=  1  1  0
 Use linear search instead of GDIIS.
     Eigenvalues ---    0.01057   0.01058   0.01062   0.01063   0.01995
     Eigenvalues ---    0.01995   0.01995   0.01995   0.02000   0.02000
     Eigenvalues ---    0.02037   0.02037   0.02886   0.02886   0.02886
     Eigenvalues ---    0.02947   0.02947   0.02947   0.02947   0.15211
     Eigenvalues ---    0.16000   0.16000   0.16000   0.16000   0.16000
     Eigenvalues ---    0.16000   0.16000   0.16000   0.16000   0.16020
     Eigenvalues ---    0.16341   0.21804   0.22000   0.22000   0.22000
     Eigenvalues ---    0.22000   0.22000   0.22013   0.22278   0.34735
     Eigenvalues ---    0.34806   0.34849   0.35074   0.35074   0.35075
     Eigenvalues ---    0.35076   0.35076   0.35093   0.35190   0.35214
     Eigenvalues ---    0.35266   0.35287   0.35373   0.35402   0.37036
     Eigenvalues ---    0.57224   0.57269   0.57843   0.58311   0.66589
 RFO step:  Lambda=-1.74802762D-05 EMin= 1.05741739D-02
 Quartic linear search produced a step of  0.00611.
 Iteration  1 RMS(Cart)=  0.00228019 RMS(Int)=  0.00000208
 Iteration  2 RMS(Cart)=  0.00000262 RMS(Int)=  0.00000000
 Iteration  3 RMS(Cart)=  0.00000000 RMS(Int)=  0.00000000
 Variable       Old X    -DE/DX   Delta X   Delta X   Delta X     New X
                                 (Linear)    (Quad)   (Total)
    R1        2.54877  -0.00032  -0.00006  -0.00065  -0.00072   2.54806
    R2        2.07325  -0.00024   0.00000  -0.00067  -0.00067   2.07258
    R3        2.07182  -0.00014  -0.00002  -0.00040  -0.00041   2.07141
    R4        2.79035   0.00018  -0.00008   0.00036   0.00027   2.79063
[...]
 ---------------------------------------------------------------------
      1          6           0        1.120705   -0.275415   -0.287397
      2          6           0        1.727176    0.543995   -1.170017
      3          6           0        3.188892    0.738630   -1.248202
      4          6           0        3.796833    1.569156   -2.143469
      5          6           0        5.248334    1.765403   -2.224528
      6          6           0        5.856038    2.597937   -3.122130
      7          6           0        7.307539    2.794184   -3.203189
      8          6           0        7.915480    3.624710   -4.098457
      9          6           0        9.377195    3.819346   -4.176643
     10          6           0        9.983665    4.638757   -5.059263
     11          1           0        1.693177   -0.860269    0.442876
     12          1           0        0.031064   -0.392417   -0.261444
     13          1           0        1.122277    1.116434   -1.889236
     14          1           0        3.802686    0.170742   -0.533332
     15          1           0        3.179747    2.135528   -2.856920
     16          1           0        5.866427    1.199601   -1.511631
     17          1           0        5.237945    3.163739   -3.835027
     18          1           0        7.924625    2.227813   -2.489738
     19          1           0        7.301685    4.192598   -4.813326
     20          1           0        9.982095    3.246908   -3.457424
     21          1           0        9.411191    5.223610   -5.789536
     22          1           0       11.073305    4.755760   -5.085217
 ---------------------------------------------------------------------
                    Distance matrix (angstroms):
                    1          2          3          4          5
     1  C    0.000000
     2  C    1.348428   0.000000
     3  C    2.495762   1.476689   0.000000
     4  C    3.742874   2.506401   1.364137   0.000000
     5  C    4.995472   3.873292   2.499756   1.466949   0.000000
     6  C    6.222157   5.007686   3.752638   2.501298   1.366786
     7  C    7.496746   6.351189   5.001053   3.866362   2.501298
     8  C    8.712297   7.507441   6.228487   5.001053   3.752638
     9  C   10.003146   8.848193   7.507442   6.351189   5.007687
    10  C   11.201422  10.003146   8.712297   7.496745   6.222157
    11  H    1.096849   2.138817   2.766475   4.125125   5.162203
    12  H    1.096212   2.139899   3.496403   4.644438   5.977441
    13  H    2.122059   1.100393   2.196487   2.724489   4.190218
    14  H    2.729938   2.202823   1.100127   2.132636   2.737332
    15  H    4.081023   2.736528   2.130582   1.100265   2.194530
    16  H    5.118232   4.204750   2.729668   2.195224   1.100179
    17  H    6.431572   5.127459   4.095294   2.735117   2.132875
    18  H    7.576925   6.556316   5.117250   4.194329   2.728863
    19  H    8.868579   7.593494   6.446322   5.127823   4.099926
    20  H   10.048884   8.982297   7.570980   6.542079   5.111103
    21  H   11.368596  10.113498   8.913797   7.626917   6.480575
    22  H   12.140266  10.973509   9.644895   8.470855   7.145353
                    6          7          8          9         10
     6  C    0.000000
     7  C    1.466949   0.000000
     8  C    2.499756   1.364137   0.000000
     9  C    3.873292   2.506401   1.476689   0.000000
    10  C    4.995472   3.742874   2.495762   1.348428   0.000000
    11  H    6.480576   7.626918   8.913798  10.113500  11.368597
    12  H    7.145352   8.470855   9.644895  10.973509  12.140266
    13  H    5.111102   6.542078   7.570978   8.982296  10.048882
    14  H    4.099927   5.127824   6.446323   7.593496   8.868580
    15  H    2.728862   4.194329   5.117249   6.556316   7.576923
    16  H    2.132875   2.735118   4.095295   5.127460   6.431573
    17  H    1.100179   2.195224   2.729667   4.204749   5.118231
    18  H    2.194530   1.100265   2.130582   2.736528   4.081024
    19  H    2.737332   2.132636   1.100127   2.202823   2.729938
    20  H    4.190219   2.724490   2.196487   1.100393   2.122059
    21  H    5.162203   4.125125   2.766475   2.138817   1.096849
    22  H    5.977441   4.644438   3.496403   2.139899   1.096212
                   11         12         13         14         15
    11  H    0.000000
    12  H    1.864825   0.000000
    13  H    3.109989   2.473274   0.000000
    14  H    2.542832   3.823114   3.149190   0.000000
    15  H    4.698228   4.800126   2.491616   3.106042   0.000000
    16  H    5.047690   6.176484   4.759880   2.504925   3.147064
    17  H    6.859918   7.247645   4.991621   4.681793   2.500017
    18  H    7.547676   8.610413   6.918649   5.004942   4.759958
    19  H    9.198613   9.726455   7.496544   6.836422   5.004940
    20  H   10.039293  11.067158   9.246324   7.496546   6.918649
    21  H   11.637194  12.250974  10.039290   9.198614   7.547674
    22  H   12.250976  13.103573  11.067157   9.726457   8.610411
                   16         17         18         19         20
    16  H    0.000000
    17  H    3.106605   0.000000
    18  H    2.500019   3.147064   0.000000
    19  H    4.681793   2.504924   3.106042   0.000000
    20  H    4.991623   4.759880   2.491617   3.149190   0.000000
    21  H    6.859918   5.047689   4.698228   2.542831   3.109989
    22  H    7.247646   6.176483   4.800127   3.823114   2.473275
                   21         22
    21  H    0.000000
    22  H    1.864825   0.000000
 Stoichiometry    C10H12
 Framework group  C1[X(C10H12)]
 Deg. of freedom    60
 Full point group                 C1      NOp   1
 Largest Abelian subgroup         C1      NOp   1
 Largest concise Abelian subgroup C1      NOp   1
                         Standard orientation:                         
 ---------------------------------------------------------------------
 Center     Atomic      Atomic             Coordinates (Angstroms)
 Number     Number       Type             X           Y           Z
 ---------------------------------------------------------------------
      1          6           0       -5.596366    0.220575    0.000000
      2          6           0       -4.404968   -0.410955    0.000000
      3          6           0       -3.101379    0.282777    0.000000
      4          6           0       -1.899053   -0.361646    0.000000
      5          6           0       -0.601955    0.323538    0.000000
      6          6           0        0.601955   -0.323536    0.000000
      7          6           0        1.899053    0.361648    0.000000
      8          6           0        3.101378   -0.282776    0.000000
      9          6           0        4.404969    0.410954    0.000000
     10          6           0        5.596365   -0.220578    0.000000
     11          1           0       -5.668037    1.315081    0.000000
     12          1           0       -6.543393   -0.331529    0.000000
     13          1           0       -4.369347   -1.510771    0.000000
     14          1           0       -3.126103    1.382626    0.000000
     15          1           0       -1.878214   -1.461714    0.000000
     16          1           0       -0.621512    1.423543    0.000000
     17          1           0        0.621512   -1.423541    0.000000
     18          1           0        1.878215    1.461716    0.000000
     19          1           0        3.126101   -1.382625    0.000000
     20          1           0        4.369348    1.510770    0.000000
     21          1           0        5.668035   -1.315083    0.000000
     22          1           0        6.543393    0.331526    0.000000
 ---------------------------------------------------------------------
 Rotational constants (GHZ):     15.1579908      0.2870529      0.2817179

 **********************************************************************

            Population analysis using the SCF density.

 **********************************************************************

 Orbital symmetries:
       Occupied  (A) (A) (A) (A) (A) (A) (A) (A) (A) (A) (A) (A)
                 (A) (A) (A) (A) (A) (A) (A) (A) (A) (A) (A) (A)
                 (A) (A) (A) (A) (A) (A) (A) (A) (A) (A) (A) (A)
       Virtual   (A) (A) (A) (A) (A) (A) (A) (A) (A) (A) (A) (A)
                 (A) (A) (A) (A) (A) (A) (A) (A) (A) (A) (A) (A)
                 (A) (A)
 The electronic state is 1-A.
 Alpha  occ. eigenvalues --  -10.00819 -10.00819 -10.00737 -10.00714 -10.00648
 Alpha  occ. eigenvalues --  -10.00618 -10.00559 -10.00558  -9.99154  -9.99154
 Alpha  occ. eigenvalues --   -0.77699  -0.76048  -0.73465  -0.70050  -0.66070
 Alpha  occ. eigenvalues --   -0.58623  -0.54017  -0.52375  -0.51118  -0.50659
 Alpha  occ. eigenvalues --   -0.43777  -0.43254  -0.40493  -0.40002  -0.36755
 Alpha  occ. eigenvalues --   -0.35762  -0.33812  -0.32950  -0.31939  -0.30630
 Alpha  occ. eigenvalues --   -0.29533  -0.29410  -0.27246  -0.23589  -0.18680
 Alpha  occ. eigenvalues --   -0.12996
 Alpha virt. eigenvalues --    0.01315   0.07958   0.14332   0.19495   0.22820
 Alpha virt. eigenvalues --    0.31451   0.35153   0.38980   0.41050   0.41450
 Alpha virt. eigenvalues --    0.42510   0.42746   0.43053   0.43077   0.43161
 Alpha virt. eigenvalues --    0.43813   0.53443   0.53626   0.58440   0.60474
 Alpha virt. eigenvalues --    0.64319   0.66444   0.68871   0.72090   0.75701
 Alpha virt. eigenvalues --    0.77639
          Condensed to atoms (all electrons):
               1          2          3          4          5          6
     1  C    4.856135   0.579877  -0.027588   0.000685  -0.000006   0.000000
     2  C    0.579877   4.790145   0.425809  -0.026671   0.000812  -0.000006
     3  C   -0.027588   0.425809   4.818289   0.559187  -0.026944   0.000692
     4  C    0.000685  -0.026671   0.559187   4.809542   0.435574  -0.026921
     5  C   -0.000006   0.000812  -0.026944   0.435574   4.812611   0.555455
     6  C    0.000000  -0.000006   0.000692  -0.026921   0.555455   4.812611
     7  C    0.000000   0.000000  -0.000006   0.000815  -0.026921   0.435574
     8  C    0.000000   0.000000   0.000000  -0.000006   0.000692  -0.026944
     9  C    0.000000   0.000000   0.000000   0.000000  -0.000006   0.000812
    10  C    0.000000   0.000000   0.000000   0.000000   0.000000  -0.000006
    11  H    0.386164  -0.024414  -0.004213   0.000025  -0.000001   0.000000
    12  H    0.388064  -0.023835   0.001413  -0.000019   0.000000   0.000000
    13  H   -0.026789   0.385304  -0.025302  -0.003228   0.000003   0.000000
    14  H   -0.003077  -0.024617   0.384230  -0.026629  -0.004170   0.000025
    15  H    0.000027  -0.004223  -0.026734   0.384324  -0.024927  -0.003268
    16  H    0.000000   0.000004  -0.003251  -0.024873   0.384350  -0.026638
    17  H    0.000000  -0.000001   0.000025  -0.004180  -0.026638   0.384350
    18  H    0.000000   0.000000   0.000000   0.000004  -0.003268  -0.024927
    19  H    0.000000   0.000000   0.000000  -0.000001   0.000025  -0.004170
    20  H    0.000000   0.000000   0.000000   0.000000   0.000000   0.000003
    21  H    0.000000   0.000000   0.000000   0.000000   0.000000  -0.000001
    22  H    0.000000   0.000000   0.000000   0.000000   0.000000   0.000000
               7          8          9         10         11         12
     1  C    0.000000   0.000000   0.000000   0.000000   0.386164   0.388064
     2  C    0.000000   0.000000   0.000000   0.000000  -0.024414  -0.023835
     3  C   -0.000006   0.000000   0.000000   0.000000  -0.004213   0.001413
     4  C    0.000815  -0.000006   0.000000   0.000000   0.000025  -0.000019
     5  C   -0.026921   0.000692  -0.000006   0.000000  -0.000001   0.000000
     6  C    0.435574  -0.026944   0.000812  -0.000006   0.000000   0.000000
     7  C    4.809542   0.559187  -0.026671   0.000685   0.000000   0.000000
     8  C    0.559187   4.818289   0.425809  -0.027588   0.000000   0.000000
     9  C   -0.026671   0.425809   4.790145   0.579877   0.000000   0.000000
    10  C    0.000685  -0.027588   0.579877   4.856135   0.000000   0.000000
    11  H    0.000000   0.000000   0.000000   0.000000   0.586684  -0.023572
    12  H    0.000000   0.000000   0.000000   0.000000  -0.023572   0.584208
    13  H    0.000000   0.000000   0.000000   0.000000   0.002006  -0.004630
    14  H   -0.000001   0.000000   0.000000   0.000000   0.000954   0.000000
    15  H    0.000004   0.000000   0.000000   0.000000   0.000001  -0.000001
    16  H   -0.004180   0.000025  -0.000001   0.000000   0.000000   0.000000
    17  H   -0.024873  -0.003251   0.000004   0.000000   0.000000   0.000000
    18  H    0.384324  -0.026734  -0.004223   0.000027   0.000000   0.000000
    19  H   -0.026629   0.384230  -0.024617  -0.003077   0.000000   0.000000
    20  H   -0.003228  -0.025302   0.385304  -0.026789   0.000000   0.000000
    21  H    0.000025  -0.004213  -0.024414   0.386164   0.000000   0.000000
    22  H   -0.000019   0.001413  -0.023835   0.388064   0.000000   0.000000
              13         14         15         16         17         18
     1  C   -0.026789  -0.003077   0.000027   0.000000   0.000000   0.000000
     2  C    0.385304  -0.024617  -0.004223   0.000004  -0.000001   0.000000
     3  C   -0.025302   0.384230  -0.026734  -0.003251   0.000025   0.000000
     4  C   -0.003228  -0.026629   0.384324  -0.024873  -0.004180   0.000004
     5  C    0.000003  -0.004170  -0.024927   0.384350  -0.026638  -0.003268
     6  C    0.000000   0.000025  -0.003268  -0.026638   0.384350  -0.024927
     7  C    0.000000  -0.000001   0.000004  -0.004180  -0.024873   0.384324
     8  C    0.000000   0.000000   0.000000   0.000025  -0.003251  -0.026734
     9  C    0.000000   0.000000   0.000000  -0.000001   0.000004  -0.004223
    10  C    0.000000   0.000000   0.000000   0.000000   0.000000   0.000027
    11  H    0.002006   0.000954   0.000001   0.000000   0.000000   0.000000
    12  H   -0.004630   0.000000  -0.000001   0.000000   0.000000   0.000000
    13  H    0.592557   0.001553   0.001015   0.000000   0.000000   0.000000
    14  H    0.001553   0.592430   0.001973   0.000976   0.000001   0.000000
    15  H    0.001015   0.001973   0.592791   0.001575   0.000983   0.000000
    16  H    0.000000   0.000976   0.001575   0.592573   0.001964   0.000983
    17  H    0.000000   0.000001   0.000983   0.001964   0.592573   0.001575
    18  H    0.000000   0.000000   0.000000   0.000983   0.001575   0.592791
    19  H    0.000000   0.000000   0.000000   0.000001   0.000976   0.001973
    20  H    0.000000   0.000000   0.000000   0.000000   0.000000   0.001015
    21  H    0.000000   0.000000   0.000000   0.000000   0.000000   0.000001
    22  H    0.000000   0.000000   0.000000   0.000000   0.000000  -0.000001
              19         20         21         22
     1  C    0.000000   0.000000   0.000000   0.000000
     2  C    0.000000   0.000000   0.000000   0.000000
     3  C    0.000000   0.000000   0.000000   0.000000
     4  C   -0.000001   0.000000   0.000000   0.000000
     5  C    0.000025   0.000000   0.000000   0.000000
     6  C   -0.004170   0.000003  -0.000001   0.000000
     7  C   -0.026629  -0.003228   0.000025  -0.000019
     8  C    0.384230  -0.025302  -0.004213   0.001413
     9  C   -0.024617   0.385304  -0.024414  -0.023835
    10  C   -0.003077  -0.026789   0.386164   0.388064
    11  H    0.000000   0.000000   0.000000   0.000000
    12  H    0.000000   0.000000   0.000000   0.000000
    13  H    0.000000   0.000000   0.000000   0.000000
    14  H    0.000000   0.000000   0.000000   0.000000
    15  H    0.000000   0.000000   0.000000   0.000000
    16  H    0.000001   0.000000   0.000000   0.000000
    17  H    0.000976   0.000000   0.000000   0.000000
    18  H    0.001973   0.001015   0.000001  -0.000001
    19  H    0.592430   0.001553   0.000954   0.000000
    20  H    0.001553   0.592557   0.002006  -0.004630
    21  H    0.000954   0.002006   0.586684  -0.023572
    22  H    0.000000  -0.004630  -0.023572   0.584208
 Mulliken charges:
               1
     1  C   -0.153492
     2  C   -0.078185
     3  C   -0.075607
     4  C   -0.077630
     5  C   -0.076641
     6  C   -0.076641
     7  C   -0.077630
     8  C   -0.075607
     9  C   -0.078185
    10  C   -0.153492
    11  H    0.076366
    12  H    0.078371
    13  H    0.077513
    14  H    0.076351
    15  H    0.076461
    16  H    0.076493
    17  H    0.076493
    18  H    0.076461
    19  H    0.076351
    20  H    0.077513
    21  H    0.076366
    22  H    0.078371
 Sum of Mulliken charges =   0.00000
 Mulliken charges with hydrogens summed into heavy atoms:
               1
     1  C    0.001245
     2  C   -0.000672
     3  C    0.000744
     4  C   -0.001169
     5  C   -0.000148
     6  C   -0.000148
     7  C   -0.001169
     8  C    0.000744
     9  C   -0.000672
    10  C    0.001245
 Electronic spatial extent (au):  <R**2>=           3743.0672
 Charge=              0.0000 electrons
 Dipole moment (field-independent basis, Debye):
    X=              0.0000    Y=              0.0000    Z=              0.0000  Tot=              0.0000
 Quadrupole moment (field-independent basis, Debye-Ang):
   XX=            -52.3049   YY=            -51.6331   ZZ=            -60.3896
   XY=             -0.1176   XZ=              0.0000   YZ=              0.0000
 Traceless Quadrupole moment (field-independent basis, Debye-Ang):
   XX=              2.4709   YY=              3.1428   ZZ=             -5.6137
   XY=             -0.1176   XZ=              0.0000   YZ=              0.0000
 Octapole moment (field-independent basis, Debye-Ang**2):
  XXX=              0.0000  YYY=              0.0000  ZZZ=              0.0000  XYY=              0.0000
  XXY=              0.0000  XXZ=              0.0000  XZZ=              0.0000  YZZ=              0.0000
  YYZ=              0.0000  XYZ=              0.0000
 Hexadecapole moment (field-independent basis, Debye-Ang**3):
 XXXX=          -4350.3707 YYYY=           -147.4105 ZZZZ=            -48.9830 XXXY=             14.4997
 XXXZ=              0.0000 YYYX=             -3.7125 YYYZ=              0.0000 ZZZX=              0.0000
 ZZZY=              0.0000 XXYY=           -747.6057 XXZZ=           -844.7012 YYZZ=            -37.7750
 XXYZ=              0.0000 YYXZ=              0.0000 ZZXY=             -0.2392
 N-N= 4.067082223640D+02 E-N=-1.700532799555D+03  KE= 3.771629698911D+02
 1\1\GINC-PC-AVL46\FOpt\RB3LYP\STO-3G\C10H12\BING\28-Jan-2019\0\\# opt(
 tight) b3lyp/sto-3g\\c10h12\\0,1\C,1.1207048271,-0.2754150379,-0.28739
 70533\C,1.7271755001,0.5439953388,-1.1700170072\C,3.1888915021,0.73863
 01891,-1.2482019121\C,3.7968328733,1.5691561789,-2.1434689898\C,5.2483
 341093,1.7654032649,-2.2245284037\C,5.8560379032,2.597936578,-3.122129
 5058\C,7.3075390771,2.7941839294,-3.2031893601\C,7.9154796324,3.624710
 2125,-4.098456737\C,9.3771954305,3.8193461165,-4.1766425392\C,9.983664
 7121,4.6387569594,-5.0592630329\H,1.6931772428,-0.860269038,0.44287647
 92\H,0.0310639622,-0.3924174329,-0.2614437941\H,1.1222769571,1.1164341
 136,-1.8892361294\H,3.8026857505,0.1707416149,-0.5333324429\H,3.179747
 4303,2.1355275805,-2.8569204162\H,5.8664269843,1.1996007301,-1.5116311
 287\H,5.2379448806,3.1637390496,-3.8350267102\H,7.92462502,2.227812848
 ,-2.4897381185\H,7.3016846393,4.1925984834,-4.8133258112\H,9.982094974
 5,3.246907769,-3.4574239273\H,9.4111911251,5.223610371,-5.7895361178\H
 ,11.0733054667,4.7557601732,-5.0852173492\\Version=ES64L-G09RevD.01\St
 ate=1-A\HF=-383.4454248\RMSD=7.799e-09\RMSF=7.807e-07\Dipole=0.0000003
 ,0.0000002,-0.0000002\Quadrupole=1.8953264,-1.4080452,-0.4872812,0.164
 6811,0.4159643,-3.1667572\PG=C01 [X(C10H12)]\\@


0EVERYBODY IS IGNORANT, ONLY ON DIFFERENT SUBJECTS.
0          WILL ROGERS
 Job cpu time:       0 days  0 hours  2 minutes  4.7 seconds.
 File lengths (MBytes):  RWF=      5 Int=      0 D2E=      0 Chk=      2 Scr=      1
 Normal termination of Gaussian 09 at Mon Jan 28 19:29:42 2019.
