 Entering Gaussian System, Link 0=g09
 Input=c10h22.com
 Output=c10h22.out
 Initial command:
 /apps/g09_d.01/g09/l1.exe "/data/scratch/Gau-51405.inp" -scrdir="/data/scratch/"
 Entering Link 1 = /apps/g09_d.01/g09/l1.exe PID=     51410.
  
 Copyright (c) 1988,1990,1992,1993,1995,1998,2003,2009,2013,
            Gaussian, Inc.  All Rights Reserved.
  
 This is part of the Gaussian(R) 09 program.  It is based on
 the Gaussian(R) 03 system (copyright 2003, Gaussian, Inc.),
 the Gaussian(R) 98 system (copyright 1998, Gaussian, Inc.),
 the Gaussian(R) 94 system (copyright 1995, Gaussian, Inc.),
 the Gaussian 92(TM) system (copyright 1992, Gaussian, Inc.),
 the Gaussian 90(TM) system (copyright 1990, Gaussian, Inc.),
 the Gaussian 88(TM) system (copyright 1988, Gaussian, Inc.),
 the Gaussian 86(TM) system (copyright 1986, Carnegie Mellon
 University), and the Gaussian 82(TM) system (copyright 1983,
 Carnegie Mellon University). Gaussian is a federally registered
 trademark of Gaussian, Inc.
  
 This software contains proprietary and confidential information,
 including trade secrets, belonging to Gaussian, Inc.
  
 This software is provided under written license and may be
 used, copied, transmitted, or stored only in accord with that
 written license.
  
 The following legend is applicable only to US Government
 contracts under FAR:
  
                    RESTRICTED RIGHTS LEGEND
  
 Use, reproduction and disclosure by the US Government is
 subject to restrictions as set forth in subparagraphs (a)
 and (c) of the Commercial Computer Software - Restricted
 Rights clause in FAR 52.227-19.
  
 Gaussian, Inc.
 340 Quinnipiac St., Bldg. 40, Wallingford CT 06492
  
  
 ---------------------------------------------------------------
 Warning -- This program may not be used in any manner that
 competes with the business of Gaussian, Inc. or will provide
 assistance to any competitor of Gaussian, Inc.  The licensee
 of this program is prohibited from giving any competitor of
 Gaussian, Inc. access to this program.  By using this program,
 the user acknowledges that Gaussian, Inc. is engaged in the
 business of creating and licensing software in the field of
 computational chemistry and represents and warrants to the
 licensee that it is not a competitor of Gaussian, Inc. and that
 it will not use this program in any manner prohibited above.
 ---------------------------------------------------------------
  

 Cite this work as:
 Gaussian 09, Revision D.01,
 M. J. Frisch, G. W. Trucks, H. B. Schlegel, G. E. Scuseria, 
 M. A. Robb, J. R. Cheeseman, G. Scalmani, V. Barone, B. Mennucci, 
 G. A. Petersson, H. Nakatsuji, M. Caricato, X. Li, H. P. Hratchian, 
 A. F. Izmaylov, J. Bloino, G. Zheng, J. L. Sonnenberg, M. Hada, 
 M. Ehara, K. Toyota, R. Fukuda, J. Hasegawa, M. Ishida, T. Nakajima, 
 Y. Honda, O. Kitao, H. Nakai, T. Vreven, J. A. Montgomery, Jr., 
 J. E. Peralta, F. Ogliaro, M. Bearpark, J. J. Heyd, E. Brothers, 
 K. N. Kudin, V. N. Staroverov, T. Keith, R. Kobayashi, J. Normand, 
 K. Raghavachari, A. Rendell, J. C. Burant, S. S. Iyengar, J. Tomasi, 
 M. Cossi, N. Rega, J. M. Millam, M. Klene, J. E. Knox, J. B. Cross, 
 V. Bakken, C. Adamo, J. Jaramillo, R. Gomperts, R. E. Stratmann, 
 O. Yazyev, A. J. Austin, R. Cammi, C. Pomelli, J. W. Ochterski, 
 R. L. Martin, K. Morokuma, V. G. Zakrzewski, G. A. Voth, 
 P. Salvador, J. J. Dannenberg, S. Dapprich, A. D. Daniels, 
 O. Farkas, J. B. Foresman, J. V. Ortiz, J. Cioslowski, 
 and D. J. Fox, Gaussian, Inc., Wallingford CT, 2013.
 
 ******************************************
 Gaussian 09:  ES64L-G09RevD.01 24-Apr-2013
                28-Jan-2019 
 ******************************************
 %nproc=6
 Will use up to    6 processors via shared memory.
 -------------------------
 # opt(tight) b3lyp/sto-3g
 -------------------------
 1/7=10,14=-1,18=20,19=15,26=3,38=1/1,3;
 2/9=110,12=2,17=6,18=5,40=1/2;
 3/6=3,11=2,16=1,25=1,30=1,71=1,74=-5/1,2,3;
 4//1;
 5/5=2,38=5/2;
 6/7=2,8=2,9=2,10=2,28=1/1;
 7//1,2,3,16;
 1/7=10,14=-1,18=20,19=15,26=3/3(2);
 2/9=110/2;
 99//99;
 2/9=110/2;
 3/6=3,11=2,16=1,25=1,30=1,71=1,74=-5/1,2,3;
 4/5=5,16=3,69=1/1;
 5/5=2,38=5/2;
 7//1,2,3,16;
 1/7=10,14=-1,18=20,19=15,26=3/3(-5);
 2/9=110/2;
 6/7=2,8=2,9=2,10=2,19=2,28=1/1;
 99/9=1/99;
 ------
 c10h22
 ------
 Symbolic Z-matrix:
 Charge =  0 Multiplicity = 1
 C                     0.37536  -1.41609  -2.26497 
 C                     0.78524  -2.75343  -1.66919 
 C                     2.03703  -2.62044  -0.80223 
 C                     2.44653  -3.96835  -0.20646 
 C                     3.69901  -3.83612   0.66159 
 C                     4.10982  -5.18523   1.25384 
 C                     5.36203  -5.05406   2.12239 
 C                     5.7748   -6.40444   2.71036 
 C                     7.02569  -6.27398   3.57892 
 C                     7.44084  -7.61512   4.1625 
 H                    -0.52172  -1.5345   -2.88072 
 H                     1.17023  -1.00831  -2.89761 
 H                     0.15388  -0.68756  -1.47851 
 H                     0.9682   -3.46747  -2.48061 
 H                    -0.04286  -3.14883  -1.06953 
 H                     1.84972  -1.90296   0.00599 
 H                     2.86085  -2.21976  -1.40541 
 H                     2.63407  -4.68535  -1.01503 
 H                     1.62255  -4.36909   0.39641 
 H                     3.51075  -3.12109   1.47171 
 H                     4.52251  -3.43328   0.05947 
 H                     4.29822  -5.89984   0.44336 
 H                     3.28617  -5.58846   1.85551 
 H                     5.17265  -4.34191   2.93479 
 H                     6.18502  -4.64809   1.52167 
 H                     5.96446  -7.11635   1.89775 
 H                     4.95167  -6.81112   3.31047 
 H                     6.83935  -5.56814   4.39671 
 H                     7.85242  -5.86974   2.98328 
 H                     6.64706  -8.0325    4.79022 
 H                     8.33671  -7.49867   4.78036 
 H                     7.66644  -8.3351    3.36934 
 

 GradGradGradGradGradGradGradGradGradGradGradGradGradGradGradGradGradGrad
 Berny optimization.
 Initialization pass.
                           ----------------------------
                           !    Initial Parameters    !
                           ! (Angstroms and Degrees)  !
 --------------------------                            --------------------------
 ! Name  Definition              Value          Derivative Info.                !
 --------------------------------------------------------------------------------
 ! R1    R(1,2)                  1.5203         estimate D2E/DX2                !
 ! R2    R(1,11)                 1.0945         estimate D2E/DX2                !
 ! R3    R(1,12)                 1.0947         estimate D2E/DX2                !
 ! R4    R(1,13)                 1.0947         estimate D2E/DX2                !
 ! R5    R(2,3)                  1.5285         estimate D2E/DX2                !
 ! R6    R(2,14)                 1.0962         estimate D2E/DX2                !
 ! R7    R(2,15)                 1.0962         estimate D2E/DX2                !
 ! R8    R(3,4)                  1.5295         estimate D2E/DX2                !
 ! R9    R(3,16)                 1.0969         estimate D2E/DX2                !
 ! R10   R(3,17)                 1.0968         estimate D2E/DX2                !
 ! R11   R(4,5)                  1.5296         estimate D2E/DX2                !
 ! R12   R(4,18)                 1.0968         estimate D2E/DX2                !
 ! R13   R(4,19)                 1.0968         estimate D2E/DX2                !
 ! R14   R(5,6)                  1.5296         estimate D2E/DX2                !
 ! R15   R(5,20)                 1.0968         estimate D2E/DX2                !
 ! R16   R(5,21)                 1.0968         estimate D2E/DX2                !
 ! R17   R(6,7)                  1.5296         estimate D2E/DX2                !
 ! R18   R(6,22)                 1.0968         estimate D2E/DX2                !
 ! R19   R(6,23)                 1.0968         estimate D2E/DX2                !
 ! R20   R(7,8)                  1.5296         estimate D2E/DX2                !
 ! R21   R(7,24)                 1.0968         estimate D2E/DX2                !
 ! R22   R(7,25)                 1.0968         estimate D2E/DX2                !
 ! R23   R(8,9)                  1.5284         estimate D2E/DX2                !
 ! R24   R(8,26)                 1.0969         estimate D2E/DX2                !
 ! R25   R(8,27)                 1.0968         estimate D2E/DX2                !
 ! R26   R(9,10)                 1.5204         estimate D2E/DX2                !
 ! R27   R(9,28)                 1.0962         estimate D2E/DX2                !
 ! R28   R(9,29)                 1.0962         estimate D2E/DX2                !
 ! R29   R(10,30)                1.0947         estimate D2E/DX2                !
 ! R30   R(10,31)                1.0945         estimate D2E/DX2                !
 ! R31   R(10,32)                1.0947         estimate D2E/DX2                !
 ! A1    A(2,1,11)             110.2592         estimate D2E/DX2                !
 ! A2    A(2,1,12)             111.0009         estimate D2E/DX2                !
 ! A3    A(2,1,13)             111.0032         estimate D2E/DX2                !
 ! A4    A(11,1,12)            108.0783         estimate D2E/DX2                !
 ! A5    A(11,1,13)            108.0806         estimate D2E/DX2                !
 ! A6    A(12,1,13)            108.3124         estimate D2E/DX2                !
 ! A7    A(1,2,3)              111.5017         estimate D2E/DX2                !
 ! A8    A(1,2,14)             109.1408         estimate D2E/DX2                !
 ! A9    A(1,2,15)             109.1466         estimate D2E/DX2                !
 ! A10   A(3,2,14)             109.8661         estimate D2E/DX2                !
 ! A11   A(3,2,15)             109.8632         estimate D2E/DX2                !
 ! A12   A(14,2,15)            107.2199         estimate D2E/DX2                !
 ! A13   A(2,3,4)              111.3162         estimate D2E/DX2                !
 ! A14   A(2,3,16)             109.5726         estimate D2E/DX2                !
 ! A15   A(2,3,17)             109.5716         estimate D2E/DX2                !
 ! A16   A(4,3,16)             109.5822         estimate D2E/DX2                !
 ! A17   A(4,3,17)             109.575          estimate D2E/DX2                !
 ! A18   A(16,3,17)            107.129          estimate D2E/DX2                !
 ! A19   A(3,4,5)              111.3513         estimate D2E/DX2                !
 ! A20   A(3,4,18)             109.5549         estimate D2E/DX2                !
 ! A21   A(3,4,19)             109.5694         estimate D2E/DX2                !
 ! A22   A(5,4,18)             109.5638         estimate D2E/DX2                !
 ! A23   A(5,4,19)             109.5603         estimate D2E/DX2                !
 ! A24   A(18,4,19)            107.1461         estimate D2E/DX2                !
 ! A25   A(4,5,6)              111.3094         estimate D2E/DX2                !
 ! A26   A(4,5,20)             109.5708         estimate D2E/DX2                !
 ! A27   A(4,5,21)             109.5722         estimate D2E/DX2                !
 ! A28   A(6,5,20)             109.5791         estimate D2E/DX2                !
 ! A29   A(6,5,21)             109.564          estimate D2E/DX2                !
 ! A30   A(20,5,21)            107.1524         estimate D2E/DX2                !
 ! A31   A(5,6,7)              111.3522         estimate D2E/DX2                !
 ! A32   A(5,6,22)             109.5526         estimate D2E/DX2                !
 ! A33   A(5,6,23)             109.571          estimate D2E/DX2                !
 ! A34   A(7,6,22)             109.5629         estimate D2E/DX2                !
 ! A35   A(7,6,23)             109.5608         estimate D2E/DX2                !
 ! A36   A(22,6,23)            107.1463         estimate D2E/DX2                !
 ! A37   A(6,7,8)              111.3147         estimate D2E/DX2                !
 ! A38   A(6,7,24)             109.5674         estimate D2E/DX2                !
 ! A39   A(6,7,25)             109.5739         estimate D2E/DX2                !
 ! A40   A(8,7,24)             109.5782         estimate D2E/DX2                !
 ! A41   A(8,7,25)             109.5616         estimate D2E/DX2                !
 ! A42   A(24,7,25)            107.1518         estimate D2E/DX2                !
 ! A43   A(7,8,9)              111.3423         estimate D2E/DX2                !
 ! A44   A(7,8,26)             109.5652         estimate D2E/DX2                !
 ! A45   A(7,8,27)             109.5806         estimate D2E/DX2                !
 ! A46   A(9,8,26)             109.5654         estimate D2E/DX2                !
 ! A47   A(9,8,27)             109.5672         estimate D2E/DX2                !
 ! A48   A(26,8,27)            107.1246         estimate D2E/DX2                !
 ! A49   A(8,9,10)             111.4876         estimate D2E/DX2                !
 ! A50   A(8,9,28)             109.8629         estimate D2E/DX2                !
 ! A51   A(8,9,29)             109.872          estimate D2E/DX2                !
 ! A52   A(10,9,28)            109.15           estimate D2E/DX2                !
 ! A53   A(10,9,29)            109.1425         estimate D2E/DX2                !
 ! A54   A(28,9,29)            107.224          estimate D2E/DX2                !
 ! A55   A(9,10,30)            111.004          estimate D2E/DX2                !
 ! A56   A(9,10,31)            110.2634         estimate D2E/DX2                !
 ! A57   A(9,10,32)            110.9972         estimate D2E/DX2                !
 ! A58   A(30,10,31)           108.0829         estimate D2E/DX2                !
 ! A59   A(30,10,32)           108.3092         estimate D2E/DX2                !
 ! A60   A(31,10,32)           108.0781         estimate D2E/DX2                !
 ! D1    D(11,1,2,3)          -179.9854         estimate D2E/DX2                !
 ! D2    D(11,1,2,14)           58.4578         estimate D2E/DX2                !
 ! D3    D(11,1,2,15)          -58.4283         estimate D2E/DX2                !
 ! D4    D(12,1,2,3)            60.2784         estimate D2E/DX2                !
 ! D5    D(12,1,2,14)          -61.2784         estimate D2E/DX2                !
 ! D6    D(12,1,2,15)         -178.1644         estimate D2E/DX2                !
 ! D7    D(13,1,2,3)           -60.2449         estimate D2E/DX2                !
 ! D8    D(13,1,2,14)          178.1983         estimate D2E/DX2                !
 ! D9    D(13,1,2,15)           61.3123         estimate D2E/DX2                !
 ! D10   D(1,2,3,4)           -179.9317         estimate D2E/DX2                !
 ! D11   D(1,2,3,16)            58.6977         estimate D2E/DX2                !
 ! D12   D(1,2,3,17)           -58.5707         estimate D2E/DX2                !
 ! D13   D(14,2,3,4)           -58.7966         estimate D2E/DX2                !
 ! D14   D(14,2,3,16)          179.8327         estimate D2E/DX2                !
 ! D15   D(14,2,3,17)           62.5643         estimate D2E/DX2                !
 ! D16   D(15,2,3,4)            58.9278         estimate D2E/DX2                !
 ! D17   D(15,2,3,16)          -62.4428         estimate D2E/DX2                !
 ! D18   D(15,2,3,17)         -179.7112         estimate D2E/DX2                !
 ! D19   D(2,3,4,5)           -179.9863         estimate D2E/DX2                !
 ! D20   D(2,3,4,18)            58.6551         estimate D2E/DX2                !
 ! D21   D(2,3,4,19)           -58.6224         estimate D2E/DX2                !
 ! D22   D(16,3,4,5)           -58.6212         estimate D2E/DX2                !
 ! D23   D(16,3,4,18)         -179.9798         estimate D2E/DX2                !
 ! D24   D(16,3,4,19)           62.7427         estimate D2E/DX2                !
 ! D25   D(17,3,4,5)            58.6547         estimate D2E/DX2                !
 ! D26   D(17,3,4,18)          -62.7038         estimate D2E/DX2                !
 ! D27   D(17,3,4,19)         -179.9814         estimate D2E/DX2                !
 ! D28   D(3,4,5,6)           -179.848          estimate D2E/DX2                !
 ! D29   D(3,4,5,20)            58.791          estimate D2E/DX2                !
 ! D30   D(3,4,5,21)           -58.505          estimate D2E/DX2                !
 ! D31   D(18,4,5,6)           -58.4946         estimate D2E/DX2                !
 ! D32   D(18,4,5,20)         -179.8556         estimate D2E/DX2                !
 ! D33   D(18,4,5,21)           62.8484         estimate D2E/DX2                !
 ! D34   D(19,4,5,6)            58.7828         estimate D2E/DX2                !
 ! D35   D(19,4,5,20)          -62.5782         estimate D2E/DX2                !
 ! D36   D(19,4,5,21)         -179.8742         estimate D2E/DX2                !
 ! D37   D(4,5,6,7)           -179.9852         estimate D2E/DX2                !
 ! D38   D(4,5,6,22)            58.6583         estimate D2E/DX2                !
 ! D39   D(4,5,6,23)           -58.619          estimate D2E/DX2                !
 ! D40   D(20,5,6,7)           -58.629          estimate D2E/DX2                !
 ! D41   D(20,5,6,22)         -179.9855         estimate D2E/DX2                !
 ! D42   D(20,5,6,23)           62.7372         estimate D2E/DX2                !
 ! D43   D(21,5,6,7)            58.667          estimate D2E/DX2                !
 ! D44   D(21,5,6,22)          -62.6895         estimate D2E/DX2                !
 ! D45   D(21,5,6,23)         -179.9668         estimate D2E/DX2                !
 ! D46   D(5,6,7,8)           -179.8081         estimate D2E/DX2                !
 ! D47   D(5,6,7,24)            58.8308         estimate D2E/DX2                !
 ! D48   D(5,6,7,25)           -58.4635         estimate D2E/DX2                !
 ! D49   D(22,6,7,8)           -58.4577         estimate D2E/DX2                !
 ! D50   D(22,6,7,24)         -179.8187         estimate D2E/DX2                !
 ! D51   D(22,6,7,25)           62.887          estimate D2E/DX2                !
 ! D52   D(23,6,7,8)            58.8197         estimate D2E/DX2                !
 ! D53   D(23,6,7,24)          -62.5414         estimate D2E/DX2                !
 ! D54   D(23,6,7,25)         -179.8357         estimate D2E/DX2                !
 ! D55   D(6,7,8,9)           -179.9742         estimate D2E/DX2                !
 ! D56   D(6,7,8,26)            58.6642         estimate D2E/DX2                !
 ! D57   D(6,7,8,27)           -58.5998         estimate D2E/DX2                !
 ! D58   D(24,7,8,9)           -58.6194         estimate D2E/DX2                !
 ! D59   D(24,7,8,26)         -179.9811         estimate D2E/DX2                !
 ! D60   D(24,7,8,27)           62.7549         estimate D2E/DX2                !
 ! D61   D(25,7,8,9)            58.6741         estimate D2E/DX2                !
 ! D62   D(25,7,8,26)          -62.6876         estimate D2E/DX2                !
 ! D63   D(25,7,8,27)         -179.9516         estimate D2E/DX2                !
 ! D64   D(7,8,9,10)          -179.8672         estimate D2E/DX2                !
 ! D65   D(7,8,9,28)            58.9976         estimate D2E/DX2                !
 ! D66   D(7,8,9,29)           -58.7352         estimate D2E/DX2                !
 ! D67   D(26,8,9,10)          -58.5056         estimate D2E/DX2                !
 ! D68   D(26,8,9,28)         -179.6408         estimate D2E/DX2                !
 ! D69   D(26,8,9,29)           62.6264         estimate D2E/DX2                !
 ! D70   D(27,8,9,10)           58.7507         estimate D2E/DX2                !
 ! D71   D(27,8,9,28)          -62.3845         estimate D2E/DX2                !
 ! D72   D(27,8,9,29)          179.8826         estimate D2E/DX2                !
 ! D73   D(8,9,10,30)          -60.2213         estimate D2E/DX2                !
 ! D74   D(8,9,10,31)         -179.9679         estimate D2E/DX2                !
 ! D75   D(8,9,10,32)           60.2959         estimate D2E/DX2                !
 ! D76   D(28,9,10,30)          61.3286         estimate D2E/DX2                !
 ! D77   D(28,9,10,31)         -58.418          estimate D2E/DX2                !
 ! D78   D(28,9,10,32)        -178.1541         estimate D2E/DX2                !
 ! D79   D(29,9,10,30)         178.2224         estimate D2E/DX2                !
 ! D80   D(29,9,10,31)          58.4758         estimate D2E/DX2                !
 ! D81   D(29,9,10,32)         -61.2604         estimate D2E/DX2                !
 --------------------------------------------------------------------------------
 Trust Radius=3.00D-01 FncErr=1.00D-07 GrdErr=1.00D-06
 Number of steps in this run=    182 maximum allowed number of steps=    192.
 GradGradGradGradGradGradGradGradGradGradGradGradGradGradGradGradGradGrad

                          Input orientation:                          
 ---------------------------------------------------------------------
 Center     Atomic      Atomic             Coordinates (Angstroms)
 Number     Number       Type             X           Y           Z
 ---------------------------------------------------------------------
      1          6           0        0.375360   -1.416090   -2.264970
      2          6           0        0.785240   -2.753430   -1.669190
      3          6           0        2.037030   -2.620440   -0.802230
      4          6           0        2.446530   -3.968350   -0.206460
      5          6           0        3.699010   -3.836120    0.661590
      6          6           0        4.109820   -5.185230    1.253840
      7          6           0        5.362030   -5.054060    2.122390
      8          6           0        5.774800   -6.404440    2.710360
      9          6           0        7.025690   -6.273980    3.578920
     10          6           0        7.440840   -7.615120    4.162500
     11          1           0       -0.521720   -1.534500   -2.880720
     12          1           0        1.170230   -1.008310   -2.897610
     13          1           0        0.153880   -0.687560   -1.478510
     14          1           0        0.968200   -3.467470   -2.480610
     15          1           0       -0.042860   -3.148830   -1.069530
     16          1           0        1.849720   -1.902960    0.005990
     17          1           0        2.860850   -2.219760   -1.405410
     18          1           0        2.634070   -4.685350   -1.015030
     19          1           0        1.622550   -4.369090    0.396410
     20          1           0        3.510750   -3.121090    1.471710
     21          1           0        4.522510   -3.433280    0.059470
     22          1           0        4.298220   -5.899840    0.443360
     23          1           0        3.286170   -5.588460    1.855510
     24          1           0        5.172650   -4.341910    2.934790
     25          1           0        6.185020   -4.648090    1.521670
     26          1           0        5.964460   -7.116350    1.897750
     27          1           0        4.951670   -6.811120    3.310470
     28          1           0        6.839350   -5.568140    4.396710
     29          1           0        7.852420   -5.869740    2.983280
     30          1           0        6.647060   -8.032500    4.790220
     31          1           0        8.336710   -7.498670    4.780360
     32          1           0        7.666440   -8.335100    3.369340
 ---------------------------------------------------------------------
                    Distance matrix (angstroms):
                    1          2          3          4          5
     1  C    0.000000
     2  C    1.520340   0.000000
     3  C    2.520162   1.528491   0.000000
     4  C    3.878304   2.524974   1.529540   0.000000
     5  C    5.046578   3.885204   2.526425   1.529608   0.000000
     6  C    6.366681   5.050801   3.886133   2.525828   1.529583
     7  C    7.573020   6.373067   5.052874   3.886187   2.526450
     8  C    8.876457   7.576677   6.373999   5.051708   3.886210
     9  C   10.098368   8.881450   7.578229   6.372891   5.051809
    10  C   11.386894  10.096616   8.876741   7.571649   6.366985
    11  H    1.094496   2.159106   3.470819   4.678226   5.971597
    12  H    1.094685   2.168566   2.782251   4.199175   5.201840
    13  H    1.094682   2.168592   2.782020   4.199755   5.202058
    14  H    2.146187   1.096234   2.162595   2.758278   4.179312
    15  H    2.146246   1.096213   2.162542   2.759269   4.179801
    16  H    2.751007   2.159316   1.096851   2.160359   2.754413
    17  H    2.749980   2.159292   1.096836   2.160257   2.754564
    18  H    4.165595   2.752892   2.159999   1.096834   2.160172
    19  H    4.166370   2.752844   2.160164   1.096808   2.160107
    20  H    5.167250   4.174785   2.755595   2.160247   1.096815
    21  H    5.164391   4.173446   2.753334   2.160257   1.096805
    22  H    6.544303   5.167571   4.173600   2.753484   2.160004
    23  H    6.546743   5.168709   4.175293   2.753447   2.160226
    24  H    7.655842   6.555095   5.173093   4.175970   2.755880
    25  H    7.650923   6.552019   5.168916   4.174301   2.753049
    26  H    9.003291   7.653917   6.551931   5.168504   4.173759
    27  H    9.007469   7.656435   6.555244   5.169706   4.175685
    28  H   10.168612   9.020531   7.666824   6.560897   5.178103
    29  H   10.162950   9.016757   7.662036   6.558458   5.174618
    30  H   11.527654  10.195758   9.045345   7.689511   6.583782
    31  H   12.248165  11.006303   9.728741   8.486799   7.203249
    32  H   11.522933  10.192779   9.041548   7.687803   6.581279
                    6          7          8          9         10
     6  C    0.000000
     7  C    1.529580   0.000000
     8  C    2.525882   1.529580   0.000000
     9  C    3.885057   2.525361   1.528444   0.000000
    10  C    5.045826   3.878470   2.519950   1.520385   0.000000
    11  H    7.202331   8.487457   9.727418  11.006953  12.246765
    12  H    6.581974   7.690233   9.042655  10.196035  11.524567
    13  H    6.583634   7.691400   9.045667  10.198405  11.528741
    14  H    5.173644   6.558248   7.659985   9.015963  10.160166
    15  H    5.175879   6.559809   7.663663   9.018816  10.165021
    16  H    4.175940   5.171547   6.556157   7.659132   9.009216
    17  H    4.174392   5.170545   6.553031   7.656771   9.004879
    18  H    2.752361   4.173861   5.167009   6.550912   7.648229
    19  H    2.754593   4.175153   5.170899   6.553693   7.653277
    20  H    2.160330   2.754450   4.176190   5.170672   6.548455
    21  H    2.160130   2.754516   4.174115   5.169334   6.545173
    22  H    1.096832   2.160134   2.752126   4.172626   5.162388
    23  H    1.096814   2.160093   2.754972   4.174217   5.166317
    24  H    2.160183   1.096821   2.160320   2.753462   4.167237
    25  H    2.160256   1.096808   2.160099   2.753638   4.165853
    26  H    2.753822   2.160191   1.096869   2.159196   2.749102
    27  H    2.753535   2.160368   1.096843   2.159200   2.751061
    28  H    4.180261   2.760305   2.162508   1.096227   2.146339
    29  H    4.179303   2.758352   2.162613   1.096211   2.146231
    30  H    5.201011   4.199967   2.781588   2.168640   1.094680
    31  H    5.971176   4.678637   3.470680   2.159189   1.094484
    32  H    5.200631   4.198859   2.782086   2.168571   1.094701
                   11         12         13         14         15
    11  H    0.000000
    12  H    1.771964   0.000000
    13  H    1.771986   1.774737   0.000000
    14  H    2.473120   2.502433   3.065162   0.000000
    15  H    2.473010   3.065174   2.502763   1.764914   0.000000
    16  H    3.754009   3.113358   2.560627   3.067238   2.508146
    17  H    3.753385   2.559779   3.111377   2.508976   3.067168
    18  H    4.834011   4.382643   4.727418   2.531063   3.087040
    19  H    4.834498   4.727579   4.384744   3.085180   2.532115
    20  H    6.141802   5.388212   5.088658   4.712258   4.368846
    21  H    6.139572   5.085527   5.384170   4.368786   4.711492
    22  H    7.303254   6.698766   6.930873   5.055201   5.357412
    23  H    7.305237   6.931603   6.704159   5.354766   5.058665
    24  H    8.609736   7.819792   7.617056   6.911483   6.682781
    25  H    8.605570   7.610923   7.814188   6.680368   6.910035
    26  H    9.801090   9.126241   9.300071   7.579378   7.786775
    27  H    9.804670   9.301191   9.135158   7.783613   7.585651
    28  H   11.109302  10.302333  10.150556   9.283359   9.115792
    29  H   11.104370  10.142486  10.297091   9.111393   9.282460
    30  H   12.347418  11.765953  11.636430  10.293392  10.146030
    31  H   13.142878  12.346434  12.350036  11.102576  11.106733
    32  H   12.343313  11.625715  11.765419  10.138153  10.297294
                   16         17         18         19         20
    16  H    0.000000
    17  H    1.764878   0.000000
    18  H    3.065841   2.506583   0.000000
    19  H    2.507156   3.065870   1.765037   0.000000
    20  H    2.528082   3.084248   3.065836   2.505808   0.000000
    21  H    3.080348   2.525791   2.507675   3.065785   1.765090
    22  H    4.707600   4.361992   2.524140   3.082955   3.065789
    23  H    4.366580   4.707721   3.079098   2.526552   2.507121
    24  H    5.056502   5.355864   4.707804   4.364324   2.528422
    25  H    5.350500   5.051207   4.364113   4.707460   3.079926
    26  H    6.905742   6.672320   5.048321   5.352910   4.707898
    27  H    6.680697   6.905913   5.347908   5.053543   4.367334
    28  H    7.590018   7.791323   6.910183   6.682449   5.061942
    29  H    7.786656   7.582791   6.679853   6.910508   5.356306
    30  H    9.136443   9.301030   7.810789   7.613924   6.706034
    31  H    9.807529   9.803861   8.603570   8.607743   7.307548
    32  H    9.301547   9.126298   7.607110   7.816403   6.932291
                   21         22         23         24         25
    21  H    0.000000
    22  H    2.506311   0.000000
    23  H    3.065795   1.765041   0.000000
    24  H    3.084762   3.065778   2.505502   0.000000
    25  H    2.525417   2.507916   3.065791   1.765091   0.000000
    26  H    4.361593   2.524184   3.083743   3.065931   2.506470
    27  H    4.707758   3.078595   2.526994   2.507382   3.065886
    28  H    5.360693   4.711299   4.368432   2.533523   3.088769
    29  H    5.057005   4.368574   4.711860   3.085090   2.531591
    30  H    6.931561   5.381494   5.087380   4.385996   4.727698
    31  H    7.304952   6.138015   6.140977   4.835549   4.834732
    32  H    6.698311   5.082987   5.387251   4.727937   4.382069
                   26         27         28         29         30
    26  H    0.000000
    27  H    1.764848   0.000000
    28  H    3.067114   2.507639   0.000000
    29  H    2.509344   3.067181   1.764953   0.000000
    30  H    3.109929   2.560425   2.502977   3.065201   0.000000
    31  H    3.752756   3.753904   2.473099   2.473347   1.772001
    32  H    2.558840   3.113833   3.065230   2.502325   1.774712
                   31         32
    31  H    0.000000
    32  H    1.771963   0.000000
 Stoichiometry    C10H22
 Framework group  C1[X(C10H22)]
 Deg. of freedom    90
 Full point group                 C1      NOp   1
 Largest Abelian subgroup         C1      NOp   1
 Largest concise Abelian subgroup C1      NOp   1
                         Standard orientation:                         
 ---------------------------------------------------------------------
 Center     Atomic      Atomic             Coordinates (Angstroms)
 Number     Number       Type             X           Y           Z
 ---------------------------------------------------------------------
      1          6           0        5.686516    0.285598    0.006116
      2          6           0        4.407769   -0.536717   -0.000054
      3          6           0        3.167354    0.356398    0.000754
      4          6           0        1.883550   -0.475058   -0.003765
      5          6           0        0.641682    0.417951   -0.003300
      6          6           0       -0.641551   -0.414476   -0.004040
      7          6           0       -1.884064    0.477587   -0.003943
      8          6           0       -3.166745   -0.355674    0.000088
      9          6           0       -4.408767    0.535126   -0.000454
     10          6           0       -5.685827   -0.289881    0.006828
     11          1           0        6.560656   -0.373037    0.005167
     12          1           0        5.740445    0.920390    0.896322
     13          1           0        5.744181    0.927971   -0.878395
     14          1           0        4.396620   -1.190542    0.879786
     15          1           0        4.400479   -1.183484   -0.885110
     16          1           0        3.184881    1.010391   -0.879626
     17          1           0        3.182084    1.004869    0.885241
     18          1           0        1.866317   -1.128589    0.876942
     19          1           0        1.869072   -1.123714   -0.888086
     20          1           0        0.657502    1.069722   -0.885314
     21          1           0        0.657096    1.068274    0.879776
     22          1           0       -0.657044   -1.065884    0.878268
     23          1           0       -0.656805   -1.065283   -0.886773
     24          1           0       -1.870275    1.126754   -0.887916
     25          1           0       -1.867552    1.130548    0.877169
     26          1           0       -3.180474   -1.004534    0.884348
     27          1           0       -3.183173   -1.009413   -0.880491
     28          1           0       -4.403207    1.181418   -0.885886
     29          1           0       -4.398459    1.189387    0.879043
     30          1           0       -5.742458   -0.933109   -0.877127
     31          1           0       -6.561380    0.366854    0.005739
     32          1           0       -5.738016   -0.924111    0.897557
 ---------------------------------------------------------------------
 Rotational constants (GHZ):      8.3574193      0.2594066      0.2556017
 Standard basis: STO-3G (5D, 7F)
 There are    72 symmetry adapted cartesian basis functions of A   symmetry.
 There are    72 symmetry adapted basis functions of A   symmetry.
    72 basis functions,   216 primitive gaussians,    72 cartesian basis functions
    41 alpha electrons       41 beta electrons
       nuclear repulsion energy       520.8741244572 Hartrees.
 NAtoms=   32 NActive=   32 NUniq=   32 SFac= 1.00D+00 NAtFMM=   60 NAOKFM=F Big=F
 Integral buffers will be    131072 words long.
 Raffenetti 2 integral format.
 Two-electron integral symmetry is turned on.
 One-electron integrals computed using PRISM.
 NBasis=    72 RedAO= T EigKep=  1.97D-01  NBF=    72
 NBsUse=    72 1.00D-06 EigRej= -1.00D+00 NBFU=    72
 ExpMin= 1.69D-01 ExpMax= 7.16D+01 ExpMxC= 7.16D+01 IAcc=1 IRadAn=         1 AccDes= 0.00D+00
 Harris functional with IExCor=  402 and IRadAn=       1 diagonalized for initial guess.
 HarFok:  IExCor=  402 AccDes= 0.00D+00 IRadAn=         1 IDoV= 1 UseB2=F ITyADJ=14
 ICtDFT=  3500011 ScaDFX=  1.000000  1.000000  1.000000  1.000000
 FoFCou: FMM=F IPFlag=           0 FMFlag=      100000 FMFlg1=           0
         NFxFlg=           0 DoJE=T BraDBF=F KetDBF=T FulRan=T
         wScrn=  0.000000 ICntrl=     500 IOpCl=  0 I1Cent=   200000004 NGrid=           0
         NMat0=    1 NMatS0=      1 NMatT0=    0 NMatD0=    1 NMtDS0=    0 NMtDT0=    0
 Petite list used in FoFCou.
 Keep R1 ints in memory in canonical form, NReq=4385880.
 Requested convergence on RMS density matrix=1.00D-08 within 128 cycles.
 Requested convergence on MAX density matrix=1.00D-06.
 Requested convergence on             energy=1.00D-06.
 No special actions if energy rises.
 Integral accuracy reduced to 1.0D-05 until final iterations.
 Initial convergence to 1.0D-05 achieved.  Increase integral accuracy.
 SCF Done:  E(RB3LYP) =  -389.663423209     A.U. after   10 cycles
            NFock= 10  Conv=0.53D-08     -V/T= 2.0172

 **********************************************************************

            Population analysis using the SCF density.

 **********************************************************************

 Orbital symmetries:
       Occupied  (A) (A) (A) (A) (A) (A) (A) (A) (A) (A) (A) (A)
                 (A) (A) (A) (A) (A) (A) (A) (A) (A) (A) (A) (A)
                 (A) (A) (A) (A) (A) (A) (A) (A) (A) (A) (A) (A)
                 (A) (A) (A) (A) (A)
       Virtual   (A) (A) (A) (A) (A) (A) (A) (A) (A) (A) (A) (A)
                 (A) (A) (A) (A) (A) (A) (A) (A) (A) (A) (A) (A)
                 (A) (A) (A) (A) (A) (A) (A)
 The electronic state is 1-A.
 Alpha  occ. eigenvalues --  -10.00574 -10.00574 -10.00279 -10.00272 -10.00229
 Alpha  occ. eigenvalues --  -10.00185 -10.00134 -10.00083  -9.99760  -9.99760
 Alpha  occ. eigenvalues --   -0.77650  -0.76106  -0.73482  -0.69894  -0.65528
 Alpha  occ. eigenvalues --   -0.60729  -0.56335  -0.54719  -0.53870  -0.53798
 Alpha  occ. eigenvalues --   -0.45421  -0.43964  -0.41599  -0.39854  -0.38764
 Alpha  occ. eigenvalues --   -0.38586  -0.37980  -0.35331  -0.35184  -0.34220
 Alpha  occ. eigenvalues --   -0.32355  -0.32319  -0.30166  -0.30124  -0.29014
 Alpha  occ. eigenvalues --   -0.28850  -0.28567  -0.28361  -0.28312  -0.28300
 Alpha  occ. eigenvalues --   -0.24053
 Alpha virt. eigenvalues --    0.33590   0.35549   0.37276   0.38163   0.39872
 Alpha virt. eigenvalues --    0.40062   0.40291   0.41322   0.42889   0.43451
 Alpha virt. eigenvalues --    0.43714   0.45910   0.46341   0.47819   0.48508
 Alpha virt. eigenvalues --    0.48722   0.49441   0.49468   0.50198   0.51362
 Alpha virt. eigenvalues --    0.51444   0.51543   0.52447   0.52741   0.53591
 Alpha virt. eigenvalues --    0.53871   0.53897   0.54059   0.54113   0.56041
 Alpha virt. eigenvalues --    0.57537
          Condensed to atoms (all electrons):
               1          2          3          4          5          6
     1  C    4.785133   0.366355  -0.023831   0.000837  -0.000006   0.000000
     2  C    0.366355   4.770898   0.365620  -0.022881   0.000812  -0.000006
     3  C   -0.023831   0.365620   4.783633   0.364770  -0.022736   0.000809
     4  C    0.000837  -0.022881   0.364770   4.784578   0.364748  -0.022766
     5  C   -0.000006   0.000812  -0.022736   0.364748   4.784606   0.364734
     6  C    0.000000  -0.000006   0.000809  -0.022766   0.364734   4.784632
     7  C    0.000000   0.000000  -0.000006   0.000809  -0.022733   0.364752
     8  C    0.000000   0.000000   0.000000  -0.000006   0.000809  -0.022766
     9  C    0.000000   0.000000   0.000000   0.000000  -0.000006   0.000812
    10  C    0.000000   0.000000   0.000000   0.000000   0.000000  -0.000006
    11  H    0.380981  -0.020314   0.001443  -0.000020   0.000000   0.000000
    12  H    0.381491  -0.020789  -0.002475   0.000011   0.000000   0.000000
    13  H    0.381490  -0.020788  -0.002476   0.000011   0.000000   0.000000
    14  H   -0.022682   0.381094  -0.022111  -0.002442   0.000010   0.000000
    15  H   -0.022677   0.381099  -0.022113  -0.002429   0.000010   0.000000
    16  H   -0.002423  -0.022210   0.380442  -0.022143  -0.002456   0.000010
    17  H   -0.002436  -0.022213   0.380448  -0.022147  -0.002460   0.000010
    18  H    0.000010  -0.002464  -0.022193   0.380451  -0.022173  -0.002481
    19  H    0.000010  -0.002463  -0.022182   0.380457  -0.022175  -0.002451
    20  H    0.000000   0.000010  -0.002443  -0.022180   0.380445  -0.022172
    21  H    0.000000   0.000010  -0.002473  -0.022182   0.380451  -0.022183
    22  H    0.000000   0.000000   0.000010  -0.002468  -0.022193   0.380447
    23  H    0.000000   0.000000   0.000010  -0.002463  -0.022180   0.380450
    24  H    0.000000   0.000000   0.000000   0.000010  -0.002439  -0.022168
    25  H    0.000000   0.000000   0.000000   0.000010  -0.002477  -0.022167
    26  H    0.000000   0.000000   0.000000   0.000000   0.000010  -0.002466
    27  H    0.000000   0.000000   0.000000   0.000000   0.000010  -0.002462
    28  H    0.000000   0.000000   0.000000   0.000000   0.000000   0.000010
    29  H    0.000000   0.000000   0.000000   0.000000   0.000000   0.000010
    30  H    0.000000   0.000000   0.000000   0.000000   0.000000   0.000000
    31  H    0.000000   0.000000   0.000000   0.000000   0.000000   0.000000
    32  H    0.000000   0.000000   0.000000   0.000000   0.000000   0.000000
               7          8          9         10         11         12
     1  C    0.000000   0.000000   0.000000   0.000000   0.380981   0.381491
     2  C    0.000000   0.000000   0.000000   0.000000  -0.020314  -0.020789
     3  C   -0.000006   0.000000   0.000000   0.000000   0.001443  -0.002475
     4  C    0.000809  -0.000006   0.000000   0.000000  -0.000020   0.000011
     5  C   -0.022733   0.000809  -0.000006   0.000000   0.000000   0.000000
     6  C    0.364752  -0.022766   0.000812  -0.000006   0.000000   0.000000
     7  C    4.784553   0.364765  -0.022860   0.000837   0.000000   0.000000
     8  C    0.364765   4.783653   0.365625  -0.023843   0.000000   0.000000
     9  C   -0.022860   0.365625   4.770887   0.366348   0.000000   0.000000
    10  C    0.000837  -0.023843   0.366348   4.785143   0.000000   0.000000
    11  H    0.000000   0.000000   0.000000   0.000000   0.613273  -0.021124
    12  H    0.000000   0.000000   0.000000   0.000000  -0.021124   0.612790
    13  H    0.000000   0.000000   0.000000   0.000000  -0.021123  -0.021307
    14  H    0.000000   0.000000   0.000000   0.000000  -0.002482  -0.002562
    15  H    0.000000   0.000000   0.000000   0.000000  -0.002485   0.002067
    16  H    0.000000   0.000000   0.000000   0.000000   0.000013  -0.000027
    17  H    0.000000   0.000000   0.000000   0.000000   0.000013   0.000591
    18  H    0.000010   0.000000   0.000000   0.000000   0.000000   0.000002
    19  H    0.000010   0.000000   0.000000   0.000000   0.000000  -0.000001
    20  H   -0.002454   0.000010   0.000000   0.000000   0.000000   0.000000
    21  H   -0.002460   0.000010   0.000000   0.000000   0.000000   0.000000
    22  H   -0.022191  -0.002484   0.000010   0.000000   0.000000   0.000000
    23  H   -0.022190  -0.002447   0.000010   0.000000   0.000000   0.000000
    24  H    0.380450  -0.022172  -0.002457   0.000010   0.000000   0.000000
    25  H    0.380455  -0.022185  -0.002459   0.000010   0.000000   0.000000
    26  H   -0.022153   0.380442  -0.022221  -0.002446   0.000000   0.000000
    27  H   -0.022144   0.380447  -0.022218  -0.002420   0.000000   0.000000
    28  H   -0.002419  -0.022114   0.381095  -0.022671   0.000000   0.000000
    29  H   -0.002444  -0.022109   0.381099  -0.022678   0.000000   0.000000
    30  H    0.000011  -0.002478  -0.020786   0.381490   0.000000   0.000000
    31  H   -0.000020   0.001444  -0.020312   0.380984   0.000000   0.000000
    32  H    0.000011  -0.002477  -0.020789   0.381487   0.000000   0.000000
              13         14         15         16         17         18
     1  C    0.381490  -0.022682  -0.022677  -0.002423  -0.002436   0.000010
     2  C   -0.020788   0.381094   0.381099  -0.022210  -0.022213  -0.002464
     3  C   -0.002476  -0.022111  -0.022113   0.380442   0.380448  -0.022193
     4  C    0.000011  -0.002442  -0.002429  -0.022143  -0.022147   0.380451
     5  C    0.000000   0.000010   0.000010  -0.002456  -0.002460  -0.022173
     6  C    0.000000   0.000000   0.000000   0.000010   0.000010  -0.002481
     7  C    0.000000   0.000000   0.000000   0.000000   0.000000   0.000010
     8  C    0.000000   0.000000   0.000000   0.000000   0.000000   0.000000
     9  C    0.000000   0.000000   0.000000   0.000000   0.000000   0.000000
    10  C    0.000000   0.000000   0.000000   0.000000   0.000000   0.000000
    11  H   -0.021123  -0.002482  -0.002485   0.000013   0.000013   0.000000
    12  H   -0.021307  -0.002562   0.002067  -0.000027   0.000591   0.000002
    13  H    0.612783   0.002067  -0.002557   0.000590  -0.000028  -0.000001
    14  H    0.002067   0.623562  -0.023107   0.002016  -0.002492   0.000567
    15  H   -0.002557  -0.023107   0.623550  -0.002505   0.002016  -0.000014
    16  H    0.000590   0.002016  -0.002505   0.625047  -0.023319   0.002017
    17  H   -0.000028  -0.002492   0.002016  -0.023319   0.625053  -0.002511
    18  H   -0.000001   0.000567  -0.000014   0.002017  -0.002511   0.625533
    19  H    0.000002  -0.000014   0.000566  -0.002505   0.002016  -0.023343
    20  H    0.000000  -0.000001   0.000002   0.000566  -0.000014   0.002017
    21  H    0.000000   0.000002  -0.000001  -0.000014   0.000569  -0.002493
    22  H    0.000000   0.000000   0.000000  -0.000001   0.000003   0.000569
    23  H    0.000000   0.000000   0.000000   0.000002  -0.000001  -0.000014
    24  H    0.000000   0.000000   0.000000   0.000000   0.000000  -0.000001
    25  H    0.000000   0.000000   0.000000   0.000000   0.000000   0.000002
    26  H    0.000000   0.000000   0.000000   0.000000   0.000000   0.000000
    27  H    0.000000   0.000000   0.000000   0.000000   0.000000   0.000000
    28  H    0.000000   0.000000   0.000000   0.000000   0.000000   0.000000
    29  H    0.000000   0.000000   0.000000   0.000000   0.000000   0.000000
    30  H    0.000000   0.000000   0.000000   0.000000   0.000000   0.000000
    31  H    0.000000   0.000000   0.000000   0.000000   0.000000   0.000000
    32  H    0.000000   0.000000   0.000000   0.000000   0.000000   0.000000
              19         20         21         22         23         24
     1  C    0.000010   0.000000   0.000000   0.000000   0.000000   0.000000
     2  C   -0.002463   0.000010   0.000010   0.000000   0.000000   0.000000
     3  C   -0.022182  -0.002443  -0.002473   0.000010   0.000010   0.000000
     4  C    0.380457  -0.022180  -0.022182  -0.002468  -0.002463   0.000010
     5  C   -0.022175   0.380445   0.380451  -0.022193  -0.022180  -0.002439
     6  C   -0.002451  -0.022172  -0.022183   0.380447   0.380450  -0.022168
     7  C    0.000010  -0.002454  -0.002460  -0.022191  -0.022190   0.380450
     8  C    0.000000   0.000010   0.000010  -0.002484  -0.002447  -0.022172
     9  C    0.000000   0.000000   0.000000   0.000010   0.000010  -0.002457
    10  C    0.000000   0.000000   0.000000   0.000000   0.000000   0.000010
    11  H    0.000000   0.000000   0.000000   0.000000   0.000000   0.000000
    12  H   -0.000001   0.000000   0.000000   0.000000   0.000000   0.000000
    13  H    0.000002   0.000000   0.000000   0.000000   0.000000   0.000000
    14  H   -0.000014  -0.000001   0.000002   0.000000   0.000000   0.000000
    15  H    0.000566   0.000002  -0.000001   0.000000   0.000000   0.000000
    16  H   -0.002505   0.000566  -0.000014  -0.000001   0.000002   0.000000
    17  H    0.002016  -0.000014   0.000569   0.000003  -0.000001   0.000000
    18  H   -0.023343   0.002017  -0.002493   0.000569  -0.000014  -0.000001
    19  H    0.625505  -0.002523   0.002017  -0.000014   0.000566   0.000002
    20  H   -0.002523   0.625585  -0.023348   0.002017  -0.002504   0.000565
    21  H    0.002017  -0.023348   0.625601  -0.002512   0.002017  -0.000013
    22  H   -0.000014   0.002017  -0.002512   0.625650  -0.023346   0.002017
    23  H    0.000566  -0.002504   0.002017  -0.023346   0.625616  -0.002527
    24  H    0.000002   0.000565  -0.000013   0.002017  -0.002527   0.625479
    25  H   -0.000001  -0.000014   0.000569  -0.002489   0.002017  -0.023344
    26  H    0.000000  -0.000001   0.000003   0.000570  -0.000014   0.002016
    27  H    0.000000   0.000002  -0.000001  -0.000015   0.000566  -0.002502
    28  H    0.000000   0.000000   0.000000  -0.000001   0.000002   0.000565
    29  H    0.000000   0.000000   0.000000   0.000002  -0.000001  -0.000014
    30  H    0.000000   0.000000   0.000000   0.000000   0.000000   0.000002
    31  H    0.000000   0.000000   0.000000   0.000000   0.000000   0.000000
    32  H    0.000000   0.000000   0.000000   0.000000   0.000000  -0.000001
              25         26         27         28         29         30
     1  C    0.000000   0.000000   0.000000   0.000000   0.000000   0.000000
     2  C    0.000000   0.000000   0.000000   0.000000   0.000000   0.000000
     3  C    0.000000   0.000000   0.000000   0.000000   0.000000   0.000000
     4  C    0.000010   0.000000   0.000000   0.000000   0.000000   0.000000
     5  C   -0.002477   0.000010   0.000010   0.000000   0.000000   0.000000
     6  C   -0.022167  -0.002466  -0.002462   0.000010   0.000010   0.000000
     7  C    0.380455  -0.022153  -0.022144  -0.002419  -0.002444   0.000011
     8  C   -0.022185   0.380442   0.380447  -0.022114  -0.022109  -0.002478
     9  C   -0.002459  -0.022221  -0.022218   0.381095   0.381099  -0.020786
    10  C    0.000010  -0.002446  -0.002420  -0.022671  -0.022678   0.381490
    11  H    0.000000   0.000000   0.000000   0.000000   0.000000   0.000000
    12  H    0.000000   0.000000   0.000000   0.000000   0.000000   0.000000
    13  H    0.000000   0.000000   0.000000   0.000000   0.000000   0.000000
    14  H    0.000000   0.000000   0.000000   0.000000   0.000000   0.000000
    15  H    0.000000   0.000000   0.000000   0.000000   0.000000   0.000000
    16  H    0.000000   0.000000   0.000000   0.000000   0.000000   0.000000
    17  H    0.000000   0.000000   0.000000   0.000000   0.000000   0.000000
    18  H    0.000002   0.000000   0.000000   0.000000   0.000000   0.000000
    19  H   -0.000001   0.000000   0.000000   0.000000   0.000000   0.000000
    20  H   -0.000014  -0.000001   0.000002   0.000000   0.000000   0.000000
    21  H    0.000569   0.000003  -0.000001   0.000000   0.000000   0.000000
    22  H   -0.002489   0.000570  -0.000015  -0.000001   0.000002   0.000000
    23  H    0.002017  -0.000014   0.000566   0.000002  -0.000001   0.000000
    24  H   -0.023344   0.002016  -0.002502   0.000565  -0.000014   0.000002
    25  H    0.625491  -0.002512   0.002016  -0.000014   0.000567  -0.000001
    26  H   -0.002512   0.625095  -0.023318   0.002017  -0.002486  -0.000028
    27  H    0.002016  -0.023318   0.625060  -0.002513   0.002017   0.000590
    28  H   -0.000014   0.002017  -0.002513   0.623544  -0.023106  -0.002554
    29  H    0.000567  -0.002486   0.002017  -0.023106   0.623538   0.002066
    30  H   -0.000001  -0.000028   0.000590  -0.002554   0.002066   0.612782
    31  H    0.000000   0.000014   0.000013  -0.002485  -0.002479  -0.021122
    32  H    0.000002   0.000592  -0.000027   0.002066  -0.002563  -0.021308
              31         32
     1  C    0.000000   0.000000
     2  C    0.000000   0.000000
     3  C    0.000000   0.000000
     4  C    0.000000   0.000000
     5  C    0.000000   0.000000
     6  C    0.000000   0.000000
     7  C   -0.000020   0.000011
     8  C    0.001444  -0.002477
     9  C   -0.020312  -0.020789
    10  C    0.380984   0.381487
    11  H    0.000000   0.000000
    12  H    0.000000   0.000000
    13  H    0.000000   0.000000
    14  H    0.000000   0.000000
    15  H    0.000000   0.000000
    16  H    0.000000   0.000000
    17  H    0.000000   0.000000
    18  H    0.000000   0.000000
    19  H    0.000000   0.000000
    20  H    0.000000   0.000000
    21  H    0.000000   0.000000
    22  H    0.000000   0.000000
    23  H    0.000000   0.000000
    24  H    0.000000  -0.000001
    25  H    0.000000   0.000002
    26  H    0.000014   0.000592
    27  H    0.000013  -0.000027
    28  H   -0.002485   0.002066
    29  H   -0.002479  -0.002563
    30  H   -0.021122  -0.021308
    31  H    0.613264  -0.021124
    32  H   -0.021124   0.612803
 Mulliken charges:
               1
     1  C   -0.222251
     2  C   -0.131768
     3  C   -0.132146
     4  C   -0.132565
     5  C   -0.132612
     6  C   -0.132582
     7  C   -0.132590
     8  C   -0.132124
     9  C   -0.131780
    10  C   -0.222245
    11  H    0.071824
    12  H    0.071334
    13  H    0.071336
    14  H    0.068574
    15  H    0.068579
    16  H    0.066899
    17  H    0.066899
    18  H    0.066510
    19  H    0.066520
    20  H    0.066434
    21  H    0.066432
    22  H    0.066419
    23  H    0.066429
    24  H    0.066523
    25  H    0.066521
    26  H    0.066886
    27  H    0.066897
    28  H    0.068578
    29  H    0.068582
    30  H    0.071336
    31  H    0.071824
    32  H    0.071329
 Sum of Mulliken charges =   0.00000
 Mulliken charges with hydrogens summed into heavy atoms:
               1
     1  C   -0.007757
     2  C    0.005384
     3  C    0.001652
     4  C    0.000464
     5  C    0.000253
     6  C    0.000266
     7  C    0.000454
     8  C    0.001659
     9  C    0.005380
    10  C   -0.007756
 Electronic spatial extent (au):  <R**2>=           4392.1726
 Charge=              0.0000 electrons
 Dipole moment (field-independent basis, Debye):
    X=              0.0000    Y=             -0.0004    Z=             -0.0004  Tot=              0.0006
 Quadrupole moment (field-independent basis, Debye-Ang):
   XX=            -65.5096   YY=            -63.5789   ZZ=            -62.4374
   XY=             -0.3511   XZ=              0.0003   YZ=              0.0000
 Traceless Quadrupole moment (field-independent basis, Debye-Ang):
   XX=             -1.6676   YY=              0.2630   ZZ=              1.4046
   XY=             -0.3511   XZ=              0.0003   YZ=              0.0000
 Octapole moment (field-independent basis, Debye-Ang**2):
  XXX=             -0.0110  YYY=             -0.0011  ZZZ=              0.0015  XYY=              0.0051
  XXY=              0.0034  XXZ=             -0.0473  XZZ=              0.0008  YZZ=              0.0009
  YYZ=             -0.0029  XYZ=             -0.0165
 Hexadecapole moment (field-independent basis, Debye-Ang**3):
 XXXX=          -5478.0507 YYYY=           -210.7319 ZZZZ=           -118.6504 XXXY=            -34.6656
 XXXZ=              0.0237 YYYX=             -0.5250 YYYZ=             -0.0018 ZZZX=             -0.0010
 ZZZY=              0.0007 XXYY=           -927.3962 XXZZ=           -903.0287 YYZZ=            -47.6202
 XXYZ=              0.0058 YYXZ=              0.0026 ZZXY=              3.7365
 N-N= 5.208741244572D+02 E-N=-1.940693163881D+03  KE= 3.830832245543D+02
 Calling FoFJK, ICntrl=      2127 FMM=F ISym2X=0 I1Cent= 0 IOpClX= 0 NMat=1 NMatS=1 NMatT=0.
 ***** Axes restored to original set *****
 -------------------------------------------------------------------
 Center     Atomic                   Forces (Hartrees/Bohr)
 Number     Number              X              Y              Z
 -------------------------------------------------------------------
      1        6          -0.008325023    0.014184327   -0.009165094
      2        6          -0.006505758   -0.007734053   -0.002927454
      3        6           0.003701580    0.005838500    0.001368679
      4        6          -0.003343435   -0.006019598   -0.001063935
      5        6           0.003331545    0.005984584    0.001092068
      6        6          -0.003351649   -0.005988840   -0.001090638
      7        6           0.003330885    0.006014886    0.001115219
      8        6          -0.003703285   -0.005839440   -0.001415509
      9        6           0.006476640    0.007726211    0.003028918
     10        6           0.008373371   -0.014218976    0.009020763
     11        1          -0.004304864    0.001146144   -0.003339369
     12        1           0.003407300    0.002221829   -0.002418180
     13        1          -0.000588788    0.003480123    0.003154326
     14        1           0.001509301   -0.004846725   -0.003376492
     15        1          -0.003594757   -0.003252524    0.003726841
     16        1          -0.000879188    0.003626089    0.003831827
     17        1           0.003964150    0.002115656   -0.002921906
     18        1           0.000768723   -0.003584691   -0.003884904
     19        1          -0.004057370   -0.002091699    0.002814654
     20        1          -0.000772619    0.003597775    0.003898105
     21        1           0.004041430    0.002113911   -0.002831394
     22        1           0.000781404   -0.003587184   -0.003889207
     23        1          -0.004043548   -0.002113932    0.002816086
     24        1          -0.000761144    0.003568625    0.003916107
     25        1           0.004043082    0.002113899   -0.002814383
     26        1           0.000887195   -0.003589266   -0.003846153
     27        1          -0.003959193   -0.002137864    0.002901824
     28        1          -0.001515745    0.004817997    0.003427190
     29        1           0.003578255    0.003297752   -0.003699331
     30        1          -0.003399623   -0.002250523    0.002404603
     31        1           0.004309946   -0.001153947    0.003343608
     32        1           0.000601182   -0.003439044   -0.003176867
 -------------------------------------------------------------------
 Cartesian Forces:  Max     0.014218976 RMS     0.004410491

 GradGradGradGradGradGradGradGradGradGradGradGradGradGradGradGradGradGrad
 Berny optimization.
 FormGI is forming the generalized inverse of G from B-inverse, IUseBI=4.
 GSVD:  received Info=                   1 from GESDD.
 Internal  Forces:  Max     0.025757953 RMS     0.005963422
 Search for a local minimum.
 Step number   1 out of a maximum of  182
 All quantities printed in internal units (Hartrees-Bohrs-Radians)
 Mixed Optimization -- RFO/linear search
 Second derivative matrix not updated -- first step.
 ITU=  0
     Eigenvalues ---    0.00374   0.00375   0.00375   0.00375   0.00375
     Eigenvalues ---    0.00389   0.00390   0.00496   0.00497   0.03677
     Eigenvalues ---    0.03677   0.03680   0.03681   0.03683   0.03685
     Eigenvalues ---    0.03720   0.03722   0.04883   0.04883   0.04884
     Eigenvalues ---    0.04884   0.04888   0.04889   0.04928   0.04929
     Eigenvalues ---    0.05607   0.05607   0.05702   0.05703   0.08104
     Eigenvalues ---    0.08105   0.08110   0.08111   0.08111   0.08114
     Eigenvalues ---    0.08167   0.08169   0.12031   0.12031   0.12034
     Eigenvalues ---    0.12036   0.12036   0.12038   0.12067   0.12069
     Eigenvalues ---    0.16000   0.16000   0.16000   0.16000   0.16000
     Eigenvalues ---    0.16000   0.21898   0.21898   0.21898   0.21898
     Eigenvalues ---    0.21899   0.21899   0.21906   0.21906   0.29460
     Eigenvalues ---    0.29462   0.29462   0.29462   0.29466   0.29563
     Eigenvalues ---    0.29568   0.30329   0.30334   0.34031   0.34033
     Eigenvalues ---    0.34034   0.34034   0.34035   0.34035   0.34036
     Eigenvalues ---    0.34037   0.34037   0.34038   0.34038   0.34038
     Eigenvalues ---    0.34102   0.34103   0.34104   0.34105   0.34275
     Eigenvalues ---    0.34277   0.34277   0.34277   0.34298   0.34300
 RFO step:  Lambda=-2.00000712D-02 EMin= 3.74285637D-03
 Linear search not attempted -- first point.
 Iteration  1 RMS(Cart)=  0.11120598 RMS(Int)=  0.00025279
 Iteration  2 RMS(Cart)=  0.00046094 RMS(Int)=  0.00005560
 Iteration  3 RMS(Cart)=  0.00000037 RMS(Int)=  0.00005560
 Variable       Old X    -DE/DX   Delta X   Delta X   Delta X     New X
                                 (Linear)    (Quad)   (Total)
    R1        2.87303   0.02576   0.00000   0.07966   0.07966   2.95269
    R2        2.06830   0.00528   0.00000   0.01455   0.01455   2.08285
    R3        2.06866   0.00470   0.00000   0.01295   0.01295   2.08161
    R4        2.06865   0.00470   0.00000   0.01296   0.01296   2.08161
    R5        2.88843   0.02275   0.00000   0.07209   0.07209   2.96052
    R6        2.07158   0.00591   0.00000   0.01636   0.01636   2.08795
    R7        2.07154   0.00593   0.00000   0.01642   0.01642   2.08796
    R8        2.89041   0.02260   0.00000   0.07182   0.07182   2.96223
    R9        2.07275   0.00535   0.00000   0.01484   0.01484   2.08758
   R10        2.07272   0.00536   0.00000   0.01487   0.01487   2.08759
   R11        2.89054   0.02256   0.00000   0.07171   0.07171   2.96225
   R12        2.07272   0.00534   0.00000   0.01482   0.01482   2.08753
   R13        2.07267   0.00536   0.00000   0.01487   0.01487   2.08754
   R14        2.89049   0.02259   0.00000   0.07181   0.07181   2.96230
   R15        2.07268   0.00536   0.00000   0.01487   0.01487   2.08755
   R16        2.07266   0.00537   0.00000   0.01489   0.01489   2.08755
   R17        2.89049   0.02258   0.00000   0.07177   0.07177   2.96225
   R18        2.07271   0.00535   0.00000   0.01483   0.01483   2.08754
   R19        2.07268   0.00536   0.00000   0.01487   0.01487   2.08755
   R20        2.89049   0.02257   0.00000   0.07175   0.07175   2.96223
   R21        2.07269   0.00535   0.00000   0.01484   0.01484   2.08753
   R22        2.07267   0.00536   0.00000   0.01487   0.01487   2.08753
   R23        2.88834   0.02279   0.00000   0.07218   0.07218   2.96052
   R24        2.07278   0.00533   0.00000   0.01480   0.01480   2.08758
   R25        2.07273   0.00535   0.00000   0.01485   0.01485   2.08758
   R26        2.87311   0.02573   0.00000   0.07958   0.07958   2.95269
   R27        2.07157   0.00592   0.00000   0.01639   0.01639   2.08796
   R28        2.07154   0.00592   0.00000   0.01641   0.01641   2.08795
   R29        2.06865   0.00470   0.00000   0.01296   0.01296   2.08161
   R30        2.06827   0.00529   0.00000   0.01458   0.01458   2.08285
   R31        2.06868   0.00469   0.00000   0.01292   0.01292   2.08161
    A1        1.92439   0.00262   0.00000   0.01659   0.01656   1.94095
    A2        1.93733  -0.00012   0.00000  -0.00168  -0.00171   1.93562
    A3        1.93737  -0.00012   0.00000  -0.00171  -0.00173   1.93564
    A4        1.88632  -0.00097   0.00000  -0.00343  -0.00345   1.88287
    A5        1.88636  -0.00098   0.00000  -0.00347  -0.00349   1.88287
    A6        1.89041  -0.00053   0.00000  -0.00678  -0.00679   1.88361
    A7        1.94607   0.00591   0.00000   0.02751   0.02750   1.97358
    A8        1.90487  -0.00088   0.00000   0.00257   0.00266   1.90753
    A9        1.90497  -0.00090   0.00000   0.00246   0.00255   1.90752
   A10        1.91752  -0.00249   0.00000  -0.01371  -0.01390   1.90363
   A11        1.91747  -0.00248   0.00000  -0.01367  -0.01385   1.90362
   A12        1.87134   0.00064   0.00000  -0.00633  -0.00651   1.86483
   A13        1.94283   0.00721   0.00000   0.03265   0.03264   1.97547
   A14        1.91240  -0.00219   0.00000  -0.00818  -0.00822   1.90418
   A15        1.91239  -0.00219   0.00000  -0.00812  -0.00816   1.90422
   A16        1.91257  -0.00207   0.00000  -0.00704  -0.00706   1.90551
   A17        1.91244  -0.00206   0.00000  -0.00691  -0.00693   1.90551
   A18        1.86975   0.00105   0.00000  -0.00388  -0.00399   1.86576
   A19        1.94345   0.00704   0.00000   0.03198   0.03197   1.97542
   A20        1.91209  -0.00207   0.00000  -0.00732  -0.00736   1.90474
   A21        1.91235  -0.00210   0.00000  -0.00762  -0.00766   1.90469
   A22        1.91225  -0.00206   0.00000  -0.00718  -0.00721   1.90503
   A23        1.91219  -0.00205   0.00000  -0.00716  -0.00719   1.90500
   A24        1.87005   0.00100   0.00000  -0.00416  -0.00426   1.86579
   A25        1.94271   0.00717   0.00000   0.03256   0.03255   1.97526
   A26        1.91237  -0.00210   0.00000  -0.00742  -0.00745   1.90492
   A27        1.91240  -0.00211   0.00000  -0.00738  -0.00741   1.90498
   A28        1.91252  -0.00213   0.00000  -0.00765  -0.00768   1.90484
   A29        1.91225  -0.00210   0.00000  -0.00735  -0.00739   1.90486
   A30        1.87016   0.00102   0.00000  -0.00424  -0.00435   1.86581
   A31        1.94346   0.00705   0.00000   0.03201   0.03200   1.97547
   A32        1.91205  -0.00206   0.00000  -0.00720  -0.00723   1.90482
   A33        1.91238  -0.00210   0.00000  -0.00756  -0.00759   1.90478
   A34        1.91223  -0.00207   0.00000  -0.00725  -0.00728   1.90495
   A35        1.91220  -0.00206   0.00000  -0.00729  -0.00731   1.90488
   A36        1.87006   0.00100   0.00000  -0.00419  -0.00429   1.86576
   A37        1.94281   0.00714   0.00000   0.03245   0.03244   1.97524
   A38        1.91231  -0.00208   0.00000  -0.00724  -0.00727   1.90504
   A39        1.91243  -0.00210   0.00000  -0.00729  -0.00732   1.90510
   A40        1.91250  -0.00214   0.00000  -0.00775  -0.00779   1.90471
   A41        1.91221  -0.00210   0.00000  -0.00742  -0.00746   1.90475
   A42        1.87015   0.00101   0.00000  -0.00421  -0.00432   1.86583
   A43        1.94329   0.00713   0.00000   0.03232   0.03231   1.97560
   A44        1.91227  -0.00204   0.00000  -0.00680  -0.00682   1.90546
   A45        1.91254  -0.00206   0.00000  -0.00706  -0.00708   1.90547
   A46        1.91228  -0.00216   0.00000  -0.00801  -0.00805   1.90423
   A47        1.91231  -0.00216   0.00000  -0.00810  -0.00814   1.90417
   A48        1.86968   0.00104   0.00000  -0.00384  -0.00394   1.86573
   A49        1.94583   0.00595   0.00000   0.02768   0.02767   1.97349
   A50        1.91747  -0.00248   0.00000  -0.01364  -0.01382   1.90364
   A51        1.91763  -0.00250   0.00000  -0.01377  -0.01395   1.90367
   A52        1.90503  -0.00091   0.00000   0.00239   0.00248   1.90751
   A53        1.90490  -0.00089   0.00000   0.00255   0.00264   1.90753
   A54        1.87141   0.00064   0.00000  -0.00637  -0.00656   1.86486
   A55        1.93738  -0.00013   0.00000  -0.00175  -0.00177   1.93562
   A56        1.92446   0.00261   0.00000   0.01655   0.01652   1.94098
   A57        1.93727  -0.00012   0.00000  -0.00166  -0.00168   1.93559
   A58        1.88640  -0.00097   0.00000  -0.00349  -0.00351   1.88289
   A59        1.89035  -0.00052   0.00000  -0.00673  -0.00674   1.88361
   A60        1.88632  -0.00097   0.00000  -0.00342  -0.00344   1.88288
    D1       -3.14134   0.00000   0.00000  -0.00001  -0.00001  -3.14134
    D2        1.02028  -0.00012   0.00000  -0.00239  -0.00245   1.01783
    D3       -1.01977   0.00012   0.00000   0.00236   0.00242  -1.01735
    D4        1.05206  -0.00042   0.00000  -0.00547  -0.00547   1.04659
    D5       -1.06951  -0.00054   0.00000  -0.00785  -0.00791  -1.07742
    D6       -3.10956  -0.00029   0.00000  -0.00310  -0.00304  -3.11260
    D7       -1.05147   0.00041   0.00000   0.00539   0.00539  -1.04608
    D8        3.11015   0.00029   0.00000   0.00300   0.00295   3.11309
    D9        1.07010   0.00053   0.00000   0.00775   0.00781   1.07791
   D10       -3.14040  -0.00001   0.00000  -0.00028  -0.00028  -3.14068
   D11        1.02447  -0.00065   0.00000  -0.00728  -0.00726   1.01721
   D12       -1.02225   0.00064   0.00000   0.00692   0.00690  -1.01535
   D13       -1.02619   0.00109   0.00000   0.01182   0.01171  -1.01448
   D14        3.13867   0.00045   0.00000   0.00482   0.00474  -3.13977
   D15        1.09195   0.00174   0.00000   0.01902   0.01890   1.11085
   D16        1.02848  -0.00110   0.00000  -0.01228  -0.01217   1.01632
   D17       -1.08983  -0.00174   0.00000  -0.01927  -0.01915  -1.10898
   D18       -3.13655  -0.00045   0.00000  -0.00507  -0.00499  -3.14154
   D19       -3.14135   0.00000   0.00000   0.00011   0.00011  -3.14124
   D20        1.02372  -0.00061   0.00000  -0.00684  -0.00683   1.01689
   D21       -1.02315   0.00062   0.00000   0.00690   0.00689  -1.01627
   D22       -1.02313   0.00057   0.00000   0.00645   0.00645  -1.01669
   D23       -3.14124  -0.00004   0.00000  -0.00050  -0.00050   3.14145
   D24        1.09507   0.00118   0.00000   0.01324   0.01322   1.10829
   D25        1.02372  -0.00057   0.00000  -0.00639  -0.00638   1.01734
   D26       -1.09439  -0.00119   0.00000  -0.01335  -0.01332  -1.10771
   D27       -3.14127   0.00004   0.00000   0.00040   0.00039  -3.14087
   D28       -3.13894  -0.00003   0.00000  -0.00065  -0.00065  -3.13959
   D29        1.02610  -0.00063   0.00000  -0.00734  -0.00732   1.01877
   D30       -1.02110   0.00060   0.00000   0.00643   0.00642  -1.01469
   D31       -1.02092   0.00058   0.00000   0.00623   0.00622  -1.01470
   D32       -3.13907  -0.00002   0.00000  -0.00046  -0.00046  -3.13953
   D33        1.09691   0.00121   0.00000   0.01331   0.01329   1.11020
   D34        1.02595  -0.00061   0.00000  -0.00717  -0.00715   1.01880
   D35       -1.09220  -0.00121   0.00000  -0.01385  -0.01383  -1.10602
   D36       -3.13940   0.00002   0.00000  -0.00009  -0.00009  -3.13948
   D37       -3.14133   0.00001   0.00000   0.00020   0.00020  -3.14113
   D38        1.02378  -0.00061   0.00000  -0.00678  -0.00676   1.01702
   D39       -1.02309   0.00061   0.00000   0.00690   0.00688  -1.01621
   D40       -1.02327   0.00062   0.00000   0.00702   0.00701  -1.01626
   D41       -3.14134   0.00001   0.00000   0.00004   0.00004  -3.14130
   D42        1.09497   0.00123   0.00000   0.01372   0.01369   1.10866
   D43        1.02393  -0.00062   0.00000  -0.00687  -0.00685   1.01708
   D44       -1.09414  -0.00123   0.00000  -0.01384  -0.01382  -1.10795
   D45       -3.14101  -0.00001   0.00000  -0.00017  -0.00017  -3.14118
   D46       -3.13824  -0.00003   0.00000  -0.00077  -0.00077  -3.13901
   D47        1.02679  -0.00062   0.00000  -0.00737  -0.00736   1.01944
   D48       -1.02038   0.00059   0.00000   0.00621   0.00620  -1.01418
   D49       -1.02028   0.00059   0.00000   0.00624   0.00623  -1.01405
   D50       -3.13843   0.00000   0.00000  -0.00036  -0.00036  -3.13879
   D51        1.09758   0.00121   0.00000   0.01322   0.01320   1.11078
   D52        1.02660  -0.00062   0.00000  -0.00730  -0.00729   1.01931
   D53       -1.09155  -0.00121   0.00000  -0.01390  -0.01387  -1.10543
   D54       -3.13873   0.00000   0.00000  -0.00032  -0.00032  -3.13904
   D55       -3.14114   0.00000   0.00000   0.00014   0.00014  -3.14100
   D56        1.02388  -0.00057   0.00000  -0.00636  -0.00635   1.01753
   D57       -1.02276   0.00056   0.00000   0.00636   0.00636  -1.01640
   D58       -1.02310   0.00063   0.00000   0.00704   0.00703  -1.01607
   D59       -3.14126   0.00005   0.00000   0.00054   0.00053  -3.14073
   D60        1.09528   0.00119   0.00000   0.01326   0.01324   1.10852
   D61        1.02406  -0.00062   0.00000  -0.00691  -0.00690   1.01716
   D62       -1.09411  -0.00119   0.00000  -0.01342  -0.01339  -1.10750
   D63       -3.14075  -0.00006   0.00000  -0.00069  -0.00068  -3.14143
   D64       -3.13927  -0.00002   0.00000  -0.00048  -0.00048  -3.13975
   D65        1.02970  -0.00111   0.00000  -0.01251  -0.01240   1.01730
   D66       -1.02512   0.00108   0.00000   0.01166   0.01156  -1.01357
   D67       -1.02111   0.00063   0.00000   0.00673   0.00671  -1.01440
   D68       -3.13532  -0.00047   0.00000  -0.00530  -0.00521  -3.14054
   D69        1.09304   0.00173   0.00000   0.01887   0.01875   1.11178
   D70        1.02539  -0.00064   0.00000  -0.00730  -0.00728   1.01811
   D71       -1.08882  -0.00173   0.00000  -0.01933  -0.01920  -1.10802
   D72        3.13954   0.00046   0.00000   0.00484   0.00476  -3.13889
   D73       -1.05106   0.00040   0.00000   0.00529   0.00529  -1.04576
   D74       -3.14103   0.00000   0.00000  -0.00003  -0.00003  -3.14106
   D75        1.05236  -0.00042   0.00000  -0.00550  -0.00550   1.04686
   D76        1.07039   0.00053   0.00000   0.00775   0.00781   1.07820
   D77       -1.01959   0.00013   0.00000   0.00243   0.00248  -1.01710
   D78       -3.10938  -0.00029   0.00000  -0.00304  -0.00299  -3.11236
   D79        3.11057   0.00028   0.00000   0.00289   0.00284   3.11340
   D80        1.02060  -0.00012   0.00000  -0.00243  -0.00249   1.01810
   D81       -1.06920  -0.00054   0.00000  -0.00790  -0.00796  -1.07716
         Item               Value     Threshold  Converged?
 Maximum Force            0.025758     0.000015     NO 
 RMS     Force            0.005963     0.000010     NO 
 Maximum Displacement     0.257193     0.000060     NO 
 RMS     Displacement     0.111608     0.000040     NO 
 Predicted change in Energy=-1.069652D-02
 GradGradGradGradGradGradGradGradGradGradGradGradGradGradGradGradGradGrad

                          Input orientation:                          
 ---------------------------------------------------------------------
 Center     Atomic      Atomic             Coordinates (Angstroms)
 Number     Number       Type             X           Y           Z
 ---------------------------------------------------------------------
      1          6           0        0.245589   -1.308280   -2.379742
      2          6           0        0.680249   -2.675745   -1.761273
      3          6           0        1.962444   -2.565774   -0.867827
      4          6           0        2.401555   -3.936552   -0.247066
      5          6           0        3.684212   -3.826341    0.647294
      6          6           0        4.124800   -5.197774    1.265649
      7          6           0        5.407062   -5.087760    2.160598
      8          6           0        5.849502   -6.459972    2.775807
      9          6           0        7.130500   -6.350428    3.671022
     10          6           0        7.570497   -7.720164    4.280635
     11          1           0       -0.657821   -1.420843   -3.001047
     12          1           0        1.043646   -0.893035   -3.015406
     13          1           0        0.023698   -0.572712   -1.590379
     14          1           0        0.867467   -3.400803   -2.573696
     15          1           0       -0.148890   -3.081920   -1.154351
     16          1           0        1.775181   -1.842340   -0.054230
     17          1           0        2.791827   -2.159657   -1.474097
     18          1           0        2.588465   -4.659419   -1.061212
     19          1           0        1.571419   -4.342293    0.358378
     20          1           0        3.496451   -3.105047    1.462648
     21          1           0        4.513761   -3.418555    0.042411
     22          1           0        4.312851   -5.918967    0.450273
     23          1           0        3.295050   -5.605692    1.870167
     24          1           0        5.218113   -4.368762    2.977696
     25          1           0        6.236250   -4.677392    1.556980
     26          1           0        6.039510   -7.179302    1.959213
     27          1           0        5.020677   -6.871059    3.379482
     28          1           0        6.939489   -5.631693    4.488174
     29          1           0        7.958384   -5.936622    3.067561
     30          1           0        6.773384   -8.143479    4.912144
     31          1           0        8.472458   -7.607836    4.904086
     32          1           0        7.796917   -8.449161    3.486478
 ---------------------------------------------------------------------
                    Distance matrix (angstroms):
                    1          2          3          4          5
     1  C    0.000000
     2  C    1.562496   0.000000
     3  C    2.610511   1.566641   0.000000
     4  C    4.013017   2.616362   1.567544   0.000000
     5  C    5.227591   4.018564   2.617079   1.567557   0.000000
     6  C    6.592823   5.233337   4.019319   2.616976   1.567581
     7  C    7.844741   6.598610   5.234230   4.019354   2.617151
     8  C    9.193664   7.850265   6.599247   5.233904   4.019336
     9  C   10.461214   9.198852   7.850704   6.598571   5.233627
    10  C   11.795217  10.460705   9.193729   7.844346   6.592893
    11  H    1.102198   2.214102   3.567532   4.824208   6.160362
    12  H    1.101541   2.209742   2.873037   4.332507   5.384445
    13  H    1.101540   2.209753   2.872824   4.332910   5.384482
    14  H    2.191576   1.104894   2.192313   2.837897   4.299989
    15  H    2.191574   1.104901   2.192313   2.838720   4.300321
    16  H    2.834233   2.192587   1.104702   2.194369   2.841266
    17  H    2.833436   2.192619   1.104704   2.194373   2.841564
    18  H    4.296246   2.840130   2.193775   1.104674   2.194008
    19  H    4.296552   2.839804   2.193740   1.104678   2.193986
    20  H    5.344196   4.302204   2.841673   2.193928   1.104682
    21  H    5.342038   4.301262   2.839892   2.193977   1.104683
    22  H    6.768312   5.348386   4.301826   2.840652   2.193875
    23  H    6.769689   5.348751   4.302737   2.840253   2.193845
    24  H    7.924310   6.776160   5.351466   4.303359   2.842156
    25  H    7.920651   6.773961   5.348274   4.302129   2.839844
    26  H    9.320137   7.927530   6.774899   5.349562   4.302430
    27  H    9.322802   7.928893   6.777012   5.350045   4.303638
    28  H   10.519908   9.325840   7.928277   6.774130   5.348690
    29  H   10.515791   9.323208   7.924720   6.772399   5.345982
    30  H   11.937490  10.562051   9.362905   7.964206   6.809524
    31  H   12.665699  11.378535  10.055727   8.767472   7.439576
    32  H   11.934290  10.560217   9.360304   7.963223   6.807773
                    6          7          8          9         10
     6  C    0.000000
     7  C    1.567557   0.000000
     8  C    2.616929   1.567547   0.000000
     9  C    4.018540   2.616477   1.566641   0.000000
    10  C    5.227372   4.013048   2.610443   1.562498   0.000000
    11  H    7.439312   8.767649  10.055353  11.378720  12.665289
    12  H    6.808210   7.964053   9.360833  10.561309  11.934894
    13  H    6.809341   7.964678   9.362874  10.562717  11.937715
    14  H    5.346016   6.772539   7.924416   9.323217  10.515196
    15  H    5.347679   6.773543   7.927048   9.325068  10.518618
    16  H    4.303688   5.350586   6.777295   7.929679   9.323388
    17  H    4.302695   5.350164   6.775232   7.928361   9.320508
    18  H    2.839794   4.302095   5.347809   6.773746   7.919856
    19  H    2.841609   4.303008   5.350750   6.775663   7.923576
    20  H    2.193887   2.840550   4.303111   5.349368   6.770392
    21  H    2.193906   2.840942   4.301846   5.348834   6.768310
    22  H    1.104681   2.193950   2.839382   4.300992   5.341183
    23  H    1.104682   2.193901   2.841690   4.302138   5.344230
    24  H    2.194015   1.104676   2.193757   2.839881   4.296889
    25  H    2.194059   1.104675   2.193788   2.840406   4.296158
    26  H    2.841408   2.194332   1.104701   2.192619   2.832923
    27  H    2.840910   2.194340   1.104702   2.192579   2.834544
    28  H    4.300631   2.839331   2.192331   1.104899   2.191564
    29  H    4.299902   2.837674   2.192350   1.104895   2.191580
    30  H    5.384153   4.333043   2.872575   2.209739   1.101539
    31  H    6.160256   4.824330   3.567501   2.214130   1.102199
    32  H    5.384055   4.332249   2.873039   2.209716   1.101539
                   11         12         13         14         15
    11  H    0.000000
    12  H    1.781510   0.000000
    13  H    1.781510   1.781461   0.000000
    14  H    2.535621   2.552460   3.110781   0.000000
    15  H    2.535443   3.110769   2.552651   1.774601   0.000000
    16  H    3.844592   3.194509   2.653187   3.098461   2.539463
    17  H    3.844150   2.652565   3.192876   2.540221   3.098487
    18  H    4.978927   4.515639   4.853785   2.614107   3.160743
    19  H    4.978967   4.853693   4.516949   3.158956   2.614642
    20  H    6.326064   5.564370   5.271973   4.826085   4.487508
    21  H    6.324456   5.269743   5.561069   4.487737   4.825544
    22  H    7.540047   6.925217   7.151471   5.230316   5.525468
    23  H    7.541013   7.151698   6.928781   5.522917   5.232385
    24  H    8.886067   8.088518   7.890453   7.119201   6.894527
    25  H    8.883070   7.886140   8.083939   6.893184   7.118066
    26  H   10.130068   9.445774   9.614397   7.846932   8.048548
    27  H   10.132193   9.614996   9.451904   8.045629   7.850964
    28  H   11.469036  10.654555  10.505725   9.576863   9.411936
    29  H   11.465568  10.500184  10.650220   9.409318   9.576104
[...]
                 (A) (A) (A) (A) (A) (A) (A) (A) (A) (A) (A) (A)
                 (A) (A) (A) (A) (A) (A) (A) (A) (A) (A) (A) (A)
                 (A) (A) (A) (A) (A)
       Virtual   (A) (A) (A) (A) (A) (A) (A) (A) (A) (A) (A) (A)
                 (A) (A) (A) (A) (A) (A) (A) (A) (A) (A) (A) (A)
                 (A) (A) (A) (A) (A) (A) (A)
 The electronic state is 1-A.
 Alpha  occ. eigenvalues --  -10.00715 -10.00715 -10.00466 -10.00441 -10.00403
 Alpha  occ. eigenvalues --  -10.00360 -10.00317 -10.00280  -9.99963  -9.99963
 Alpha  occ. eigenvalues --   -0.76316  -0.74841  -0.72385  -0.69043  -0.64983
 Alpha  occ. eigenvalues --   -0.60521  -0.56378  -0.54252  -0.53747  -0.53573
 Alpha  occ. eigenvalues --   -0.44516  -0.43146  -0.40957  -0.38996  -0.38187
 Alpha  occ. eigenvalues --   -0.38120  -0.37125  -0.35197  -0.34626  -0.33793
 Alpha  occ. eigenvalues --   -0.32436  -0.31948  -0.30304  -0.29772  -0.28994
 Alpha  occ. eigenvalues --   -0.28628  -0.28416  -0.28293  -0.28285  -0.27664
 Alpha  occ. eigenvalues --   -0.24221
 Alpha virt. eigenvalues --    0.31284   0.35775   0.36178   0.37348   0.38325
 Alpha virt. eigenvalues --    0.38627   0.39698   0.39741   0.41792   0.42000
 Alpha virt. eigenvalues --    0.42446   0.44622   0.45249   0.46896   0.47133
 Alpha virt. eigenvalues --    0.47873   0.47892   0.48010   0.48493   0.49018
 Alpha virt. eigenvalues --    0.50247   0.50303   0.50340   0.50474   0.50513
 Alpha virt. eigenvalues --    0.51668   0.52356   0.52525   0.52607   0.54585
 Alpha virt. eigenvalues --    0.55989
          Condensed to atoms (all electrons):
               1          2          3          4          5          6
     1  C    4.785621   0.359426  -0.019942   0.000600  -0.000004   0.000000
     2  C    0.359426   4.776187   0.358322  -0.019061   0.000585  -0.000003
     3  C   -0.019942   0.358322   4.788045   0.358162  -0.018993   0.000584
     4  C    0.000600  -0.019061   0.358162   4.788182   0.358074  -0.018995
     5  C   -0.000004   0.000585  -0.018993   0.358074   4.788130   0.358027
     6  C    0.000000  -0.000003   0.000584  -0.018995   0.358027   4.788130
     7  C    0.000000   0.000000  -0.000003   0.000584  -0.018995   0.358074
     8  C    0.000000   0.000000   0.000000  -0.000003   0.000584  -0.018993
     9  C    0.000000   0.000000   0.000000   0.000000  -0.000003   0.000585
    10  C    0.000000   0.000000   0.000000   0.000000   0.000000  -0.000004
    11  H    0.379546  -0.018569   0.001146  -0.000013   0.000000   0.000000
    12  H    0.379494  -0.019569  -0.001953   0.000006   0.000000   0.000000
    13  H    0.379494  -0.019569  -0.001954   0.000006   0.000000   0.000000
    14  H   -0.021189   0.378132  -0.021337  -0.001943   0.000004   0.000000
    15  H   -0.021189   0.378132  -0.021337  -0.001943   0.000004   0.000000
    16  H   -0.001920  -0.021236   0.377532  -0.021209  -0.001945   0.000005
    17  H   -0.001920  -0.021236   0.377532  -0.021209  -0.001945   0.000005
    18  H    0.000005  -0.001947  -0.021230   0.377510  -0.021218  -0.001946
    19  H    0.000005  -0.001947  -0.021230   0.377510  -0.021218  -0.001946
    20  H    0.000000   0.000005  -0.001946  -0.021225   0.377523  -0.021226
    21  H    0.000000   0.000005  -0.001946  -0.021225   0.377523  -0.021226
    22  H    0.000000   0.000000   0.000005  -0.001946  -0.021226   0.377523
    23  H    0.000000   0.000000   0.000005  -0.001946  -0.021226   0.377523
    24  H    0.000000   0.000000   0.000000   0.000005  -0.001946  -0.021218
    25  H    0.000000   0.000000   0.000000   0.000005  -0.001946  -0.021218
    26  H    0.000000   0.000000   0.000000   0.000000   0.000005  -0.001945
    27  H    0.000000   0.000000   0.000000   0.000000   0.000005  -0.001945
    28  H    0.000000   0.000000   0.000000   0.000000   0.000000   0.000004
    29  H    0.000000   0.000000   0.000000   0.000000   0.000000   0.000004
    30  H    0.000000   0.000000   0.000000   0.000000   0.000000   0.000000
    31  H    0.000000   0.000000   0.000000   0.000000   0.000000   0.000000
    32  H    0.000000   0.000000   0.000000   0.000000   0.000000   0.000000
               7          8          9         10         11         12
     1  C    0.000000   0.000000   0.000000   0.000000   0.379546   0.379494
     2  C    0.000000   0.000000   0.000000   0.000000  -0.018569  -0.019569
     3  C   -0.000003   0.000000   0.000000   0.000000   0.001146  -0.001953
     4  C    0.000584  -0.000003   0.000000   0.000000  -0.000013   0.000006
     5  C   -0.018995   0.000584  -0.000003   0.000000   0.000000   0.000000
     6  C    0.358074  -0.018993   0.000585  -0.000004   0.000000   0.000000
     7  C    4.788182   0.358162  -0.019061   0.000600   0.000000   0.000000
     8  C    0.358162   4.788045   0.358322  -0.019942   0.000000   0.000000
     9  C   -0.019061   0.358322   4.776187   0.359426   0.000000   0.000000
    10  C    0.000600  -0.019942   0.359426   4.785621   0.000000   0.000000
    11  H    0.000000   0.000000   0.000000   0.000000   0.612455  -0.020908
    12  H    0.000000   0.000000   0.000000   0.000000  -0.020908   0.613503
    13  H    0.000000   0.000000   0.000000   0.000000  -0.020908  -0.021156
    14  H    0.000000   0.000000   0.000000   0.000000  -0.002052  -0.002171
    15  H    0.000000   0.000000   0.000000   0.000000  -0.002052   0.001807
    16  H    0.000000   0.000000   0.000000   0.000000   0.000006  -0.000012
    17  H    0.000000   0.000000   0.000000   0.000000   0.000006   0.000534
    18  H    0.000005   0.000000   0.000000   0.000000   0.000000   0.000002
    19  H    0.000005   0.000000   0.000000   0.000000   0.000000   0.000000
    20  H   -0.001946   0.000005   0.000000   0.000000   0.000000   0.000000
    21  H   -0.001946   0.000005   0.000000   0.000000   0.000000   0.000000
    22  H   -0.021225  -0.001946   0.000005   0.000000   0.000000   0.000000
    23  H   -0.021225  -0.001946   0.000005   0.000000   0.000000   0.000000
    24  H    0.377510  -0.021230  -0.001947   0.000005   0.000000   0.000000
    25  H    0.377510  -0.021230  -0.001947   0.000005   0.000000   0.000000
    26  H   -0.021209   0.377532  -0.021236  -0.001920   0.000000   0.000000
    27  H   -0.021209   0.377532  -0.021236  -0.001920   0.000000   0.000000
    28  H   -0.001943  -0.021337   0.378132  -0.021189   0.000000   0.000000
    29  H   -0.001943  -0.021337   0.378132  -0.021189   0.000000   0.000000
    30  H    0.000006  -0.001954  -0.019569   0.379494   0.000000   0.000000
    31  H   -0.000013   0.001146  -0.018569   0.379546   0.000000   0.000000
    32  H    0.000006  -0.001953  -0.019569   0.379494   0.000000   0.000000
              13         14         15         16         17         18
     1  C    0.379494  -0.021189  -0.021189  -0.001920  -0.001920   0.000005
     2  C   -0.019569   0.378132   0.378132  -0.021236  -0.021236  -0.001947
     3  C   -0.001954  -0.021337  -0.021337   0.377532   0.377532  -0.021230
     4  C    0.000006  -0.001943  -0.001943  -0.021209  -0.021209   0.377510
     5  C    0.000000   0.000004   0.000004  -0.001945  -0.001945  -0.021218
     6  C    0.000000   0.000000   0.000000   0.000005   0.000005  -0.001946
     7  C    0.000000   0.000000   0.000000   0.000000   0.000000   0.000005
     8  C    0.000000   0.000000   0.000000   0.000000   0.000000   0.000000
     9  C    0.000000   0.000000   0.000000   0.000000   0.000000   0.000000
    10  C    0.000000   0.000000   0.000000   0.000000   0.000000   0.000000
    11  H   -0.020908  -0.002052  -0.002052   0.000006   0.000006   0.000000
    12  H   -0.021156  -0.002171   0.001807  -0.000012   0.000534   0.000002
    13  H    0.613503   0.001807  -0.002171   0.000534  -0.000012   0.000000
    14  H    0.001807   0.625067  -0.022909   0.001817  -0.002204   0.000541
    15  H   -0.002171  -0.022909   0.625067  -0.002204   0.001817  -0.000002
    16  H    0.000534   0.001817  -0.002204   0.626455  -0.022995   0.001812
    17  H   -0.000012  -0.002204   0.001817  -0.022995   0.626455  -0.002193
    18  H    0.000000   0.000541  -0.000002   0.001812  -0.002193   0.626601
    19  H    0.000002  -0.000002   0.000541  -0.002193   0.001812  -0.023012
    20  H    0.000000   0.000000   0.000002   0.000533  -0.000001   0.001812
    21  H    0.000000   0.000002   0.000000  -0.000001   0.000533  -0.002195
    22  H    0.000000   0.000000   0.000000   0.000000   0.000002   0.000534
    23  H    0.000000   0.000000   0.000000   0.000002   0.000000  -0.000001
    24  H    0.000000   0.000000   0.000000   0.000000   0.000000   0.000000
    25  H    0.000000   0.000000   0.000000   0.000000   0.000000   0.000002
    26  H    0.000000   0.000000   0.000000   0.000000   0.000000   0.000000
    27  H    0.000000   0.000000   0.000000   0.000000   0.000000   0.000000
    28  H    0.000000   0.000000   0.000000   0.000000   0.000000   0.000000
    29  H    0.000000   0.000000   0.000000   0.000000   0.000000   0.000000
    30  H    0.000000   0.000000   0.000000   0.000000   0.000000   0.000000
    31  H    0.000000   0.000000   0.000000   0.000000   0.000000   0.000000
    32  H    0.000000   0.000000   0.000000   0.000000   0.000000   0.000000
              19         20         21         22         23         24
     1  C    0.000005   0.000000   0.000000   0.000000   0.000000   0.000000
     2  C   -0.001947   0.000005   0.000005   0.000000   0.000000   0.000000
     3  C   -0.021230  -0.001946  -0.001946   0.000005   0.000005   0.000000
     4  C    0.377510  -0.021225  -0.021225  -0.001946  -0.001946   0.000005
     5  C   -0.021218   0.377523   0.377523  -0.021226  -0.021226  -0.001946
     6  C   -0.001946  -0.021226  -0.021226   0.377523   0.377523  -0.021218
     7  C    0.000005  -0.001946  -0.001946  -0.021225  -0.021225   0.377510
     8  C    0.000000   0.000005   0.000005  -0.001946  -0.001946  -0.021230
     9  C    0.000000   0.000000   0.000000   0.000005   0.000005  -0.001947
    10  C    0.000000   0.000000   0.000000   0.000000   0.000000   0.000005
    11  H    0.000000   0.000000   0.000000   0.000000   0.000000   0.000000
    12  H    0.000000   0.000000   0.000000   0.000000   0.000000   0.000000
    13  H    0.000002   0.000000   0.000000   0.000000   0.000000   0.000000
    14  H   -0.000002   0.000000   0.000002   0.000000   0.000000   0.000000
    15  H    0.000541   0.000002   0.000000   0.000000   0.000000   0.000000
    16  H   -0.002193   0.000533  -0.000001   0.000000   0.000002   0.000000
    17  H    0.001812  -0.000001   0.000533   0.000002   0.000000   0.000000
    18  H   -0.023012   0.001812  -0.002195   0.000534  -0.000001   0.000000
    19  H    0.626601  -0.002195   0.001812  -0.000001   0.000534   0.000002
    20  H   -0.002195   0.626560  -0.023008   0.001812  -0.002195   0.000534
    21  H    0.001812  -0.023008   0.626560  -0.002195   0.001812  -0.000001
    22  H   -0.000001   0.001812  -0.002195   0.626560  -0.023008   0.001812
    23  H    0.000534  -0.002195   0.001812  -0.023008   0.626560  -0.002195
    24  H    0.000002   0.000534  -0.000001   0.001812  -0.002195   0.626601
    25  H    0.000000  -0.000001   0.000534  -0.002195   0.001812  -0.023012
    26  H    0.000000   0.000000   0.000002   0.000533  -0.000001   0.001812
    27  H    0.000000   0.000002   0.000000  -0.000001   0.000533  -0.002193
    28  H    0.000000   0.000000   0.000000   0.000000   0.000002   0.000541
    29  H    0.000000   0.000000   0.000000   0.000002   0.000000  -0.000002
    30  H    0.000000   0.000000   0.000000   0.000000   0.000000   0.000002
    31  H    0.000000   0.000000   0.000000   0.000000   0.000000   0.000000
    32  H    0.000000   0.000000   0.000000   0.000000   0.000000   0.000000
              25         26         27         28         29         30
     1  C    0.000000   0.000000   0.000000   0.000000   0.000000   0.000000
     2  C    0.000000   0.000000   0.000000   0.000000   0.000000   0.000000
     3  C    0.000000   0.000000   0.000000   0.000000   0.000000   0.000000
     4  C    0.000005   0.000000   0.000000   0.000000   0.000000   0.000000
     5  C   -0.001946   0.000005   0.000005   0.000000   0.000000   0.000000
     6  C   -0.021218  -0.001945  -0.001945   0.000004   0.000004   0.000000
     7  C    0.377510  -0.021209  -0.021209  -0.001943  -0.001943   0.000006
     8  C   -0.021230   0.377532   0.377532  -0.021337  -0.021337  -0.001954
     9  C   -0.001947  -0.021236  -0.021236   0.378132   0.378132  -0.019569
    10  C    0.000005  -0.001920  -0.001920  -0.021189  -0.021189   0.379494
    11  H    0.000000   0.000000   0.000000   0.000000   0.000000   0.000000
    12  H    0.000000   0.000000   0.000000   0.000000   0.000000   0.000000
    13  H    0.000000   0.000000   0.000000   0.000000   0.000000   0.000000
    14  H    0.000000   0.000000   0.000000   0.000000   0.000000   0.000000
    15  H    0.000000   0.000000   0.000000   0.000000   0.000000   0.000000
    16  H    0.000000   0.000000   0.000000   0.000000   0.000000   0.000000
    17  H    0.000000   0.000000   0.000000   0.000000   0.000000   0.000000
    18  H    0.000002   0.000000   0.000000   0.000000   0.000000   0.000000
    19  H    0.000000   0.000000   0.000000   0.000000   0.000000   0.000000
    20  H   -0.000001   0.000000   0.000002   0.000000   0.000000   0.000000
    21  H    0.000534   0.000002   0.000000   0.000000   0.000000   0.000000
    22  H   -0.002195   0.000533  -0.000001   0.000000   0.000002   0.000000
    23  H    0.001812  -0.000001   0.000533   0.000002   0.000000   0.000000
    24  H   -0.023012   0.001812  -0.002193   0.000541  -0.000002   0.000002
    25  H    0.626601  -0.002193   0.001812  -0.000002   0.000541   0.000000
    26  H   -0.002193   0.626455  -0.022995   0.001817  -0.002204  -0.000012
    27  H    0.001812  -0.022995   0.626455  -0.002204   0.001817   0.000534
    28  H   -0.000002   0.001817  -0.002204   0.625067  -0.022909  -0.002171
    29  H    0.000541  -0.002204   0.001817  -0.022909   0.625067   0.001807
    30  H    0.000000  -0.000012   0.000534  -0.002171   0.001807   0.613503
    31  H    0.000000   0.000006   0.000006  -0.002052  -0.002052  -0.020908
    32  H    0.000002   0.000534  -0.000012   0.001807  -0.002171  -0.021156
              31         32
     1  C    0.000000   0.000000
     2  C    0.000000   0.000000
     3  C    0.000000   0.000000
     4  C    0.000000   0.000000
     5  C    0.000000   0.000000
     6  C    0.000000   0.000000
     7  C   -0.000013   0.000006
     8  C    0.001146  -0.001953
     9  C   -0.018569  -0.019569
    10  C    0.379546   0.379494
    11  H    0.000000   0.000000
    12  H    0.000000   0.000000
    13  H    0.000000   0.000000
    14  H    0.000000   0.000000
    15  H    0.000000   0.000000
    16  H    0.000000   0.000000
    17  H    0.000000   0.000000
    18  H    0.000000   0.000000
    19  H    0.000000   0.000000
    20  H    0.000000   0.000000
    21  H    0.000000   0.000000
    22  H    0.000000   0.000000
    23  H    0.000000   0.000000
    24  H    0.000000   0.000000
    25  H    0.000000   0.000002
    26  H    0.000006   0.000534
    27  H    0.000006  -0.000012
    28  H   -0.002052   0.001807
    29  H   -0.002052  -0.002171
    30  H   -0.020908  -0.021156
    31  H    0.612455  -0.020908
    32  H   -0.020908   0.613503
 Mulliken charges:
               1
     1  C   -0.218027
     2  C   -0.127653
     3  C   -0.129461
     4  C   -0.129924
     5  C   -0.129801
     6  C   -0.129801
     7  C   -0.129924
     8  C   -0.129461
     9  C   -0.127653
    10  C   -0.218027
    11  H    0.071344
    12  H    0.070424
    13  H    0.070424
    14  H    0.066437
    15  H    0.066437
    16  H    0.065021
    17  H    0.065021
    18  H    0.064922
    19  H    0.064922
    20  H    0.064957
    21  H    0.064957
    22  H    0.064957
    23  H    0.064957
    24  H    0.064922
    25  H    0.064922
    26  H    0.065021
    27  H    0.065021
    28  H    0.066437
    29  H    0.066438
    30  H    0.070424
    31  H    0.071344
    32  H    0.070424
 Sum of Mulliken charges =   0.00000
 Mulliken charges with hydrogens summed into heavy atoms:
               1
     1  C   -0.005835
     2  C    0.005222
     3  C    0.000580
     4  C   -0.000080
     5  C    0.000113
     6  C    0.000113
     7  C   -0.000080
     8  C    0.000580
     9  C    0.005222
    10  C   -0.005835
 Electronic spatial extent (au):  <R**2>=           4611.7227
 Charge=              0.0000 electrons
 Dipole moment (field-independent basis, Debye):
    X=              0.0000    Y=              0.0000    Z=              0.0000  Tot=              0.0000
 Quadrupole moment (field-independent basis, Debye-Ang):
   XX=            -64.6041   YY=            -63.5154   ZZ=            -62.5389
   XY=             -0.2394   XZ=              0.0000   YZ=              0.0000
 Traceless Quadrupole moment (field-independent basis, Debye-Ang):
   XX=             -1.0513   YY=              0.0374   ZZ=              1.0139
   XY=             -0.2394   XZ=              0.0000   YZ=              0.0000
 Octapole moment (field-independent basis, Debye-Ang**2):
  XXX=              0.0000  YYY=              0.0000  ZZZ=              0.0000  XYY=              0.0000
  XXY=              0.0000  XXZ=              0.0000  XZZ=              0.0000  YZZ=              0.0000
  YYZ=              0.0000  XYZ=              0.0000
 Hexadecapole moment (field-independent basis, Debye-Ang**3):
 XXXX=          -5707.7061 YYYY=           -213.1351 ZZZZ=           -119.7020 XXXY=            -30.0487
 XXXZ=              0.0001 YYYX=             -0.3592 YYYZ=              0.0000 ZZZX=             -0.0001
 ZZZY=              0.0000 XXYY=           -973.9752 XXZZ=           -951.1350 YYZZ=            -47.9348
 XXYZ=             -0.0001 YYXZ=              0.0001 ZZXY=              4.0404
 N-N= 5.103641143770D+02 E-N=-1.919567949879D+03  KE= 3.826476048630D+02
 1\1\GINC-PC-AVL46\FOpt\RB3LYP\STO-3G\C10H22\BING\28-Jan-2019\0\\# opt(
 tight) b3lyp/sto-3g\\c10h22\\0,1\C,0.2768431888,-1.3321305336,-2.34670
 94785\C,0.7060548286,-2.6984216798,-1.7383626209\C,1.983366013,-2.5777
 509938,-0.8494812123\C,2.4134323136,-3.9485004488,-0.239540659\C,3.690
 7434225,-3.8275408753,0.6492751666\C,4.1208014683,-5.1984229537,1.2592
 445039\C,5.3981145287,-5.0774633234,2.1480575297\C,5.8281759168,-6.448
 2104105,2.7580068272\C,7.1054902479,-6.3275390117,3.6468836444\C,7.534
 697449,-7.6938274199,4.2552397385\H,-0.6249773304,-1.4502130834,-2.967
 0378285\H,1.0784791736,-0.9185752739,-2.9777149598\H,0.0558191607,-0.6
 044890224,-1.5507808638\H,0.8972004686,-3.4180335741,-2.5536047889\H,-
 0.1219171508,-3.1050455198,-1.1316360058\H,1.7928047409,-1.858720928,-
 0.0335630396\H,2.8120409281,-2.1717455854,-1.4556971936\H,2.6036476956
 ,-4.6672711942,-1.0557809639\H,1.5843967278,-4.3542408611,0.3663770225
 \H,3.5005062743,-3.1087711811,1.4655015788\H,4.5197603842,-3.421808188
 3,0.0433399584\H,4.3110364792,-5.9171932518,0.4430181105\H,3.291785522
 5,-5.6041547811,1.8651816854\H,5.2079037625,-4.3586860371,2.9642931458
 \H,6.2271509465,-4.6717308909,1.5421356599\H,6.0187312587,-7.167247340
 7,1.9420932897\H,4.9995010076,-6.8542075082,3.3642283675\H,6.914350665
 5,-5.6079196624,4.4621206536\H,7.9334623219,-5.920924065,3.0401512048\
 H,6.7330510451,-8.1073870204,4.8862291722\H,8.436504678,-7.5757393234,
 4.8755863488\H,7.7557418626,-8.4214680569,3.4593160064\\Version=ES64L-
 G09RevD.01\State=1-A\HF=-389.6712288\RMSD=2.030e-09\RMSF=1.107e-07\Dip
 ole=0.0000003,0.,-0.0000003\Quadrupole=0.0438401,-0.3052818,0.2614417,
 0.2420888,-0.5621204,0.406626\PG=C01 [X(C10H22)]\\@


 IF IT'S NOT TRUE, IT'S WELL INVENTED -- DANTE
 Job cpu time:       0 days  0 hours  3 minutes  6.0 seconds.
 File lengths (MBytes):  RWF=      6 Int=      0 D2E=      0 Chk=      2 Scr=      1
 Normal termination of Gaussian 09 at Mon Jan 28 19:29:52 2019.
