 Entering Gaussian System, Link 0=g09
 Input=c12h26.com
 Output=c12h26.out
 Initial command:
 /apps/g09_d.01/g09/l1.exe "/data/scratch/Gau-51411.inp" -scrdir="/data/scratch/"
 Entering Link 1 = /apps/g09_d.01/g09/l1.exe PID=     51431.
  
 Copyright (c) 1988,1990,1992,1993,1995,1998,2003,2009,2013,
            Gaussian, Inc.  All Rights Reserved.
  
 This is part of the Gaussian(R) 09 program.  It is based on
 the Gaussian(R) 03 system (copyright 2003, Gaussian, Inc.),
 the Gaussian(R) 98 system (copyright 1998, Gaussian, Inc.),
 the Gaussian(R) 94 system (copyright 1995, Gaussian, Inc.),
 the Gaussian 92(TM) system (copyright 1992, Gaussian, Inc.),
 the Gaussian 90(TM) system (copyright 1990, Gaussian, Inc.),
 the Gaussian 88(TM) system (copyright 1988, Gaussian, Inc.),
 the Gaussian 86(TM) system (copyright 1986, Carnegie Mellon
 University), and the Gaussian 82(TM) system (copyright 1983,
 Carnegie Mellon University). Gaussian is a federally registered
 trademark of Gaussian, Inc.
  
 This software contains proprietary and confidential information,
 including trade secrets, belonging to Gaussian, Inc.
  
 This software is provided under written license and may be
 used, copied, transmitted, or stored only in accord with that
 written license.
  
 The following legend is applicable only to US Government
 contracts under FAR:
  
                    RESTRICTED RIGHTS LEGEND
  
 Use, reproduction and disclosure by the US Government is
 subject to restrictions as set forth in subparagraphs (a)
 and (c) of the Commercial Computer Software - Restricted
 Rights clause in FAR 52.227-19.
  
 Gaussian, Inc.
 340 Quinnipiac St., Bldg. 40, Wallingford CT 06492
  
  
 ---------------------------------------------------------------
 Warning -- This program may not be used in any manner that
 competes with the business of Gaussian, Inc. or will provide
 assistance to any competitor of Gaussian, Inc.  The licensee
 of this program is prohibited from giving any competitor of
 Gaussian, Inc. access to this program.  By using this program,
 the user acknowledges that Gaussian, Inc. is engaged in the
 business of creating and licensing software in the field of
 computational chemistry and represents and warrants to the
 licensee that it is not a competitor of Gaussian, Inc. and that
 it will not use this program in any manner prohibited above.
 ---------------------------------------------------------------
  

 Cite this work as:
 Gaussian 09, Revision D.01,
 M. J. Frisch, G. W. Trucks, H. B. Schlegel, G. E. Scuseria, 
 M. A. Robb, J. R. Cheeseman, G. Scalmani, V. Barone, B. Mennucci, 
 G. A. Petersson, H. Nakatsuji, M. Caricato, X. Li, H. P. Hratchian, 
 A. F. Izmaylov, J. Bloino, G. Zheng, J. L. Sonnenberg, M. Hada, 
 M. Ehara, K. Toyota, R. Fukuda, J. Hasegawa, M. Ishida, T. Nakajima, 
 Y. Honda, O. Kitao, H. Nakai, T. Vreven, J. A. Montgomery, Jr., 
 J. E. Peralta, F. Ogliaro, M. Bearpark, J. J. Heyd, E. Brothers, 
 K. N. Kudin, V. N. Staroverov, T. Keith, R. Kobayashi, J. Normand, 
 K. Raghavachari, A. Rendell, J. C. Burant, S. S. Iyengar, J. Tomasi, 
 M. Cossi, N. Rega, J. M. Millam, M. Klene, J. E. Knox, J. B. Cross, 
 V. Bakken, C. Adamo, J. Jaramillo, R. Gomperts, R. E. Stratmann, 
 O. Yazyev, A. J. Austin, R. Cammi, C. Pomelli, J. W. Ochterski, 
 R. L. Martin, K. Morokuma, V. G. Zakrzewski, G. A. Voth, 
 P. Salvador, J. J. Dannenberg, S. Dapprich, A. D. Daniels, 
 O. Farkas, J. B. Foresman, J. V. Ortiz, J. Cioslowski, 
 and D. J. Fox, Gaussian, Inc., Wallingford CT, 2013.
 
 ******************************************
 Gaussian 09:  ES64L-G09RevD.01 24-Apr-2013
                28-Jan-2019 
 ******************************************
 %nproc=6
 Will use up to    6 processors via shared memory.
 -------------------------
 # opt(tight) b3lyp/sto-3g
 -------------------------
 1/7=10,14=-1,18=20,19=15,26=3,38=1/1,3;
 2/9=110,12=2,17=6,18=5,40=1/2;
 3/6=3,11=2,16=1,25=1,30=1,71=1,74=-5/1,2,3;
 4//1;
 5/5=2,38=5/2;
 6/7=2,8=2,9=2,10=2,28=1/1;
 7//1,2,3,16;
 1/7=10,14=-1,18=20,19=15,26=3/3(2);
 2/9=110/2;
 99//99;
 2/9=110/2;
 3/6=3,11=2,16=1,25=1,30=1,71=1,74=-5/1,2,3;
 4/5=5,16=3,69=1/1;
 5/5=2,38=5/2;
 7//1,2,3,16;
 1/7=10,14=-1,18=20,19=15,26=3/3(-5);
 2/9=110/2;
 6/7=2,8=2,9=2,10=2,19=2,28=1/1;
 99/9=1/99;
 ------
 c12h26
 ------
 Symbolic Z-matrix:
 Charge =  0 Multiplicity = 1
 C                     0.18321  -1.24906  -2.43151 
 C                     0.58812  -2.59641  -1.84084 
 C                     1.84174  -2.46403  -0.96853 
 C                     2.24566  -3.82019  -0.37854 
 C                     3.49999  -3.6897    0.49356 
 C                     3.90441  -5.04731   1.07988 
 C                     5.15982  -4.91963   1.95073 
 C                     5.56461  -6.2795    2.53166 
 C                     6.82142  -6.15584   3.40101 
 C                     7.22625  -7.51807   3.97649 
 C                     8.4838   -7.39722   4.84455 
 C                     8.8899   -8.75255   5.41607 
 H                    -0.72545  -1.37493  -3.05716 
 H                     0.99973  -0.84529  -3.06741 
 H                    -0.04087  -0.52362  -1.62059 
 H                     0.78482  -3.30782  -2.67247 
 H                    -0.25372  -2.98729  -1.22854 
 H                     1.63913  -1.74899  -0.14069 
 H                     2.67837  -2.06882  -1.58623 
 H                     2.44783  -4.53457  -1.20708 
 H                     1.40905  -4.21582   0.23889 
 H                     3.29811  -2.97659   1.3232 
 H                     4.3363   -3.29322  -0.12372 
 H                     4.10558  -5.75952   0.24924 
 H                     3.06844  -5.44448   1.69717 
 H                     4.95915  -4.20919   2.78295 
 H                     5.99536  -4.52127   1.33362 
 H                     5.76417  -6.98878   1.69815 
 H                     4.72934  -6.67846   3.14875 
 H                     6.62236  -5.44829   4.23611 
 H                     7.6563   -5.75568   2.78416 
 H                     7.42468  -8.22478   3.14047 
 H                     6.39166  -7.9188    4.5934 
 H                     8.29156  -6.69584   5.68566 
 H                     9.3233   -6.99985   4.23322 
 H                     9.10947  -9.46764   4.59473 
 H                     8.07575  -9.16386   6.05018 
 H                     9.80157  -8.636     6.03909 
 

 GradGradGradGradGradGradGradGradGradGradGradGradGradGradGradGradGradGrad
 Berny optimization.
 Initialization pass.
                           ----------------------------
                           !    Initial Parameters    !
                           ! (Angstroms and Degrees)  !
 --------------------------                            --------------------------
 ! Name  Definition              Value          Derivative Info.                !
 --------------------------------------------------------------------------------
 ! R1    R(1,2)                  1.5258         estimate D2E/DX2                !
 ! R2    R(1,13)                 1.1104         estimate D2E/DX2                !
 ! R3    R(1,14)                 1.1109         estimate D2E/DX2                !
 ! R4    R(1,15)                 1.1109         estimate D2E/DX2                !
 ! R5    R(2,3)                  1.533          estimate D2E/DX2                !
 ! R6    R(2,16)                 1.1119         estimate D2E/DX2                !
 ! R7    R(2,17)                 1.1119         estimate D2E/DX2                !
 ! R8    R(3,4)                  1.5331         estimate D2E/DX2                !
 ! R9    R(3,18)                 1.1125         estimate D2E/DX2                !
 ! R10   R(3,19)                 1.1125         estimate D2E/DX2                !
 ! R11   R(4,5)                  1.5333         estimate D2E/DX2                !
 ! R12   R(4,20)                 1.1125         estimate D2E/DX2                !
 ! R13   R(4,21)                 1.1125         estimate D2E/DX2                !
 ! R14   R(5,6)                  1.5331         estimate D2E/DX2                !
 ! R15   R(5,22)                 1.1125         estimate D2E/DX2                !
 ! R16   R(5,23)                 1.1125         estimate D2E/DX2                !
 ! R17   R(6,7)                  1.5332         estimate D2E/DX2                !
 ! R18   R(6,24)                 1.1125         estimate D2E/DX2                !
 ! R19   R(6,25)                 1.1125         estimate D2E/DX2                !
 ! R20   R(7,8)                  1.5332         estimate D2E/DX2                !
 ! R21   R(7,26)                 1.1125         estimate D2E/DX2                !
 ! R22   R(7,27)                 1.1125         estimate D2E/DX2                !
 ! R23   R(8,9)                  1.5332         estimate D2E/DX2                !
 ! R24   R(8,28)                 1.1125         estimate D2E/DX2                !
 ! R25   R(8,29)                 1.1125         estimate D2E/DX2                !
 ! R26   R(9,10)                 1.5332         estimate D2E/DX2                !
 ! R27   R(9,30)                 1.1125         estimate D2E/DX2                !
 ! R28   R(9,31)                 1.1125         estimate D2E/DX2                !
 ! R29   R(10,11)                1.5328         estimate D2E/DX2                !
 ! R30   R(10,32)                1.1125         estimate D2E/DX2                !
 ! R31   R(10,33)                1.1125         estimate D2E/DX2                !
 ! R32   R(11,12)                1.5259         estimate D2E/DX2                !
 ! R33   R(11,34)                1.1119         estimate D2E/DX2                !
 ! R34   R(11,35)                1.1119         estimate D2E/DX2                !
 ! R35   R(12,36)                1.1109         estimate D2E/DX2                !
 ! R36   R(12,37)                1.1109         estimate D2E/DX2                !
 ! R37   R(12,38)                1.1104         estimate D2E/DX2                !
 ! A1    A(2,1,13)             109.5836         estimate D2E/DX2                !
 ! A2    A(2,1,14)             110.3336         estimate D2E/DX2                !
 ! A3    A(2,1,15)             110.3396         estimate D2E/DX2                !
 ! A4    A(13,1,14)            108.6719         estimate D2E/DX2                !
 ! A5    A(13,1,15)            108.6791         estimate D2E/DX2                !
 ! A6    A(14,1,15)            109.1936         estimate D2E/DX2                !
 ! A7    A(1,2,3)              111.1638         estimate D2E/DX2                !
 ! A8    A(1,2,16)             108.8063         estimate D2E/DX2                !
 ! A9    A(1,2,17)             108.8244         estimate D2E/DX2                !
 ! A10   A(3,2,16)             109.6438         estimate D2E/DX2                !
 ! A11   A(3,2,17)             109.642          estimate D2E/DX2                !
 ! A12   A(16,2,17)            108.7154         estimate D2E/DX2                !
 ! A13   A(2,3,4)              110.9804         estimate D2E/DX2                !
 ! A14   A(2,3,18)             109.2688         estimate D2E/DX2                !
 ! A15   A(2,3,19)             109.2512         estimate D2E/DX2                !
 ! A16   A(4,3,18)             109.2791         estimate D2E/DX2                !
 ! A17   A(4,3,19)             109.2554         estimate D2E/DX2                !
 ! A18   A(18,3,19)            108.7714         estimate D2E/DX2                !
 ! A19   A(3,4,5)              111.0472         estimate D2E/DX2                !
 ! A20   A(3,4,20)             109.2259         estimate D2E/DX2                !
 ! A21   A(3,4,21)             109.2706         estimate D2E/DX2                !
 ! A22   A(5,4,20)             109.2435         estimate D2E/DX2                !
 ! A23   A(5,4,21)             109.2562         estimate D2E/DX2                !
 ! A24   A(20,4,21)            108.7615         estimate D2E/DX2                !
 ! A25   A(4,5,6)              110.975          estimate D2E/DX2                !
 ! A26   A(4,5,22)             109.2856         estimate D2E/DX2                !
 ! A27   A(4,5,23)             109.2515         estimate D2E/DX2                !
 ! A28   A(6,5,22)             109.2868         estimate D2E/DX2                !
 ! A29   A(6,5,23)             109.2377         estimate D2E/DX2                !
 ! A30   A(22,5,23)            108.7697         estimate D2E/DX2                !
 ! A31   A(5,6,7)              111.0678         estimate D2E/DX2                !
 ! A32   A(5,6,24)             109.2116         estimate D2E/DX2                !
 ! A33   A(5,6,25)             109.2762         estimate D2E/DX2                !
 ! A34   A(7,6,24)             109.2283         estimate D2E/DX2                !
 ! A35   A(7,6,25)             109.26           estimate D2E/DX2                !
 ! A36   A(24,6,25)            108.7607         estimate D2E/DX2                !
 ! A37   A(6,7,8)              110.9491         estimate D2E/DX2                !
 ! A38   A(6,7,26)             109.2923         estimate D2E/DX2                !
 ! A39   A(6,7,27)             109.2517         estimate D2E/DX2                !
 ! A40   A(8,7,26)             109.3054         estimate D2E/DX2                !
 ! A41   A(8,7,27)             109.2381         estimate D2E/DX2                !
 ! A42   A(26,7,27)            108.7701         estimate D2E/DX2                !
 ! A43   A(7,8,9)              111.0844         estimate D2E/DX2                !
 ! A44   A(7,8,28)             109.2061         estimate D2E/DX2                !
 ! A45   A(7,8,29)             109.2706         estimate D2E/DX2                !
 ! A46   A(9,8,28)             109.2207         estimate D2E/DX2                !
 ! A47   A(9,8,29)             109.2609         estimate D2E/DX2                !
 ! A48   A(28,8,29)            108.7615         estimate D2E/DX2                !
 ! A49   A(8,9,10)             110.9537         estimate D2E/DX2                !
 ! A50   A(8,9,30)             109.2846         estimate D2E/DX2                !
 ! A51   A(8,9,31)             109.2561         estimate D2E/DX2                !
 ! A52   A(10,9,30)            109.3033         estimate D2E/DX2                !
 ! A53   A(10,9,31)            109.2414         estimate D2E/DX2                !
 ! A54   A(30,9,31)            108.7676         estimate D2E/DX2                !
 ! A55   A(9,10,11)            111.047          estimate D2E/DX2                !
 ! A56   A(9,10,32)            109.2339         estimate D2E/DX2                !
 ! A57   A(9,10,33)            109.274          estimate D2E/DX2                !
 ! A58   A(11,10,32)           109.227          estimate D2E/DX2                !
 ! A59   A(11,10,33)           109.2582         estimate D2E/DX2                !
 ! A60   A(32,10,33)           108.7649         estimate D2E/DX2                !
 ! A61   A(10,11,12)           111.1258         estimate D2E/DX2                !
 ! A62   A(10,11,34)           109.6503         estimate D2E/DX2                !
 ! A63   A(10,11,35)           109.6472         estimate D2E/DX2                !
 ! A64   A(12,11,34)           108.8417         estimate D2E/DX2                !
 ! A65   A(12,11,35)           108.8084         estimate D2E/DX2                !
 ! A66   A(34,11,35)           108.7233         estimate D2E/DX2                !
 ! A67   A(11,12,36)           110.3292         estimate D2E/DX2                !
 ! A68   A(11,12,37)           110.3406         estimate D2E/DX2                !
 ! A69   A(11,12,38)           109.599          estimate D2E/DX2                !
 ! A70   A(36,12,37)           109.18           estimate D2E/DX2                !
 ! A71   A(36,12,38)           108.6704         estimate D2E/DX2                !
 ! A72   A(37,12,38)           108.6822         estimate D2E/DX2                !
 ! D1    D(13,1,2,3)           179.999          estimate D2E/DX2                !
 ! D2    D(13,1,2,16)           59.1579         estimate D2E/DX2                !
 ! D3    D(13,1,2,17)          -59.1503         estimate D2E/DX2                !
 ! D4    D(14,1,2,3)            60.3804         estimate D2E/DX2                !
 ! D5    D(14,1,2,16)          -60.4607         estimate D2E/DX2                !
 ! D6    D(14,1,2,17)         -178.7689         estimate D2E/DX2                !
 ! D7    D(15,1,2,3)           -60.3698         estimate D2E/DX2                !
 ! D8    D(15,1,2,16)          178.7891         estimate D2E/DX2                !
 ! D9    D(15,1,2,17)           60.4809         estimate D2E/DX2                !
 ! D10   D(1,2,3,4)           -179.9384         estimate D2E/DX2                !
 ! D11   D(1,2,3,18)            59.4874         estimate D2E/DX2                !
 ! D12   D(1,2,3,19)           -59.4052         estimate D2E/DX2                !
 ! D13   D(16,2,3,4)           -59.5913         estimate D2E/DX2                !
 ! D14   D(16,2,3,18)          179.8345         estimate D2E/DX2                !
 ! D15   D(16,2,3,19)           60.9419         estimate D2E/DX2                !
 ! D16   D(17,2,3,4)            59.693          estimate D2E/DX2                !
 ! D17   D(17,2,3,18)          -60.8811         estimate D2E/DX2                !
 ! D18   D(17,2,3,19)         -179.7738         estimate D2E/DX2                !
 ! D19   D(2,3,4,5)            179.9636         estimate D2E/DX2                !
 ! D20   D(2,3,4,20)            59.4194         estimate D2E/DX2                !
 ! D21   D(2,3,4,21)           -59.4473         estimate D2E/DX2                !
 ! D22   D(18,3,4,5)           -59.4683         estimate D2E/DX2                !
 ! D23   D(18,3,4,20)          179.9875         estimate D2E/DX2                !
 ! D24   D(18,3,4,21)           61.1208         estimate D2E/DX2                !
 ! D25   D(19,3,4,5)            59.4329         estimate D2E/DX2                !
 ! D26   D(19,3,4,20)          -61.1114         estimate D2E/DX2                !
 ! D27   D(19,3,4,21)         -179.978          estimate D2E/DX2                !
 ! D28   D(3,4,5,6)           -179.8608         estimate D2E/DX2                !
 ! D29   D(3,4,5,22)            59.5478         estimate D2E/DX2                !
 ! D30   D(3,4,5,23)           -59.3528         estimate D2E/DX2                !
 ! D31   D(20,4,5,6)           -59.327          estimate D2E/DX2                !
 ! D32   D(20,4,5,22)         -179.9184         estimate D2E/DX2                !
 ! D33   D(20,4,5,23)           61.1811         estimate D2E/DX2                !
 ! D34   D(21,4,5,6)            59.5415         estimate D2E/DX2                !
 ! D35   D(21,4,5,22)          -61.0498         estimate D2E/DX2                !
 ! D36   D(21,4,5,23)         -179.9504         estimate D2E/DX2                !
 ! D37   D(4,5,6,7)            179.9155         estimate D2E/DX2                !
 ! D38   D(4,5,6,24)            59.3866         estimate D2E/DX2                !
 ! D39   D(4,5,6,25)           -59.4739         estimate D2E/DX2                !
 ! D40   D(22,5,6,7)           -59.4939         estimate D2E/DX2                !
 ! D41   D(22,5,6,24)          179.9772         estimate D2E/DX2                !
 ! D42   D(22,5,6,25)           61.1167         estimate D2E/DX2                !
 ! D43   D(23,5,6,7)            59.3993         estimate D2E/DX2                !
 ! D44   D(23,5,6,24)          -61.1297         estimate D2E/DX2                !
 ! D45   D(23,5,6,25)         -179.9901         estimate D2E/DX2                !
 ! D46   D(5,6,7,8)           -179.803          estimate D2E/DX2                !
 ! D47   D(5,6,7,26)            59.5946         estimate D2E/DX2                !
 ! D48   D(5,6,7,27)           -59.3106         estimate D2E/DX2                !
 ! D49   D(24,6,7,8)           -59.284          estimate D2E/DX2                !
 ! D50   D(24,6,7,26)         -179.8864         estimate D2E/DX2                !
 ! D51   D(24,6,7,27)           61.2084         estimate D2E/DX2                !
 ! D52   D(25,6,7,8)            59.5768         estimate D2E/DX2                !
 ! D53   D(25,6,7,26)          -61.0257         estimate D2E/DX2                !
 ! D54   D(25,6,7,27)         -179.9308         estimate D2E/DX2                !
 ! D55   D(6,7,8,9)            179.8921         estimate D2E/DX2                !
 ! D56   D(6,7,8,28)            59.3657         estimate D2E/DX2                !
 ! D57   D(6,7,8,29)           -59.4893         estimate D2E/DX2                !
 ! D58   D(26,7,8,9)           -59.5132         estimate D2E/DX2                !
 ! D59   D(26,7,8,28)          179.9604         estimate D2E/DX2                !
 ! D60   D(26,7,8,29)           61.1054         estimate D2E/DX2                !
 ! D61   D(27,7,8,9)            59.3916         estimate D2E/DX2                !
 ! D62   D(27,7,8,28)          -61.1348         estimate D2E/DX2                !
 ! D63   D(27,7,8,29)         -179.9897         estimate D2E/DX2                !
 ! D64   D(7,8,9,10)          -179.8079         estimate D2E/DX2                !
 ! D65   D(7,8,9,30)            59.5944         estimate D2E/DX2                !
 ! D66   D(7,8,9,31)           -59.3057         estimate D2E/DX2                !
 ! D67   D(28,8,9,10)          -59.2901         estimate D2E/DX2                !
 ! D68   D(28,8,9,30)         -179.8878         estimate D2E/DX2                !
 ! D69   D(28,8,9,31)           61.212          estimate D2E/DX2                !
 ! D70   D(29,8,9,10)           59.5678         estimate D2E/DX2                !
 ! D71   D(29,8,9,30)          -61.0299         estimate D2E/DX2                !
 ! D72   D(29,8,9,31)         -179.9301         estimate D2E/DX2                !
 ! D73   D(8,9,10,11)          179.9225         estimate D2E/DX2                !
 ! D74   D(8,9,10,32)           59.3938         estimate D2E/DX2                !
 ! D75   D(8,9,10,33)          -59.4837         estimate D2E/DX2                !
 ! D76   D(30,9,10,11)         -59.4908         estimate D2E/DX2                !
 ! D77   D(30,9,10,32)         179.9804         estimate D2E/DX2                !
 ! D78   D(30,9,10,33)          61.1029         estimate D2E/DX2                !
 ! D79   D(31,9,10,11)          59.4117         estimate D2E/DX2                !
 ! D80   D(31,9,10,32)         -61.1171         estimate D2E/DX2                !
 ! D81   D(31,9,10,33)        -179.9945         estimate D2E/DX2                !
 ! D82   D(9,10,11,12)        -179.8899         estimate D2E/DX2                !
 ! D83   D(9,10,11,34)          59.7388         estimate D2E/DX2                !
 ! D84   D(9,10,11,35)         -59.5622         estimate D2E/DX2                !
 ! D85   D(32,10,11,12)        -59.3571         estimate D2E/DX2                !
 ! D86   D(32,10,11,34)       -179.7283         estimate D2E/DX2                !
 ! D87   D(32,10,11,35)         60.9706         estimate D2E/DX2                !
 ! D88   D(33,10,11,12)         59.5069         estimate D2E/DX2                !
 ! D89   D(33,10,11,34)        -60.8643         estimate D2E/DX2                !
 ! D90   D(33,10,11,35)        179.8346         estimate D2E/DX2                !
 ! D91   D(10,11,12,36)         60.3656         estimate D2E/DX2                !
 ! D92   D(10,11,12,37)        -60.3654         estimate D2E/DX2                !
 ! D93   D(10,11,12,38)        179.9893         estimate D2E/DX2                !
 ! D94   D(34,11,12,36)       -178.786          estimate D2E/DX2                !
 ! D95   D(34,11,12,37)         60.483          estimate D2E/DX2                !
 ! D96   D(34,11,12,38)        -59.1623         estimate D2E/DX2                !
 ! D97   D(35,11,12,36)        -60.4572         estimate D2E/DX2                !
 ! D98   D(35,11,12,37)        178.8118         estimate D2E/DX2                !
 ! D99   D(35,11,12,38)         59.1665         estimate D2E/DX2                !
 --------------------------------------------------------------------------------
 Trust Radius=3.00D-01 FncErr=1.00D-07 GrdErr=1.00D-06
 Number of steps in this run=    218 maximum allowed number of steps=    228.
 GradGradGradGradGradGradGradGradGradGradGradGradGradGradGradGradGradGrad

                          Input orientation:                          
 ---------------------------------------------------------------------
 Center     Atomic      Atomic             Coordinates (Angstroms)
 Number     Number       Type             X           Y           Z
 ---------------------------------------------------------------------
      1          6           0        0.183210   -1.249060   -2.431510
      2          6           0        0.588120   -2.596410   -1.840840
      3          6           0        1.841740   -2.464030   -0.968530
      4          6           0        2.245660   -3.820190   -0.378540
      5          6           0        3.499990   -3.689700    0.493560
      6          6           0        3.904410   -5.047310    1.079880
      7          6           0        5.159820   -4.919630    1.950730
      8          6           0        5.564610   -6.279500    2.531660
      9          6           0        6.821420   -6.155840    3.401010
     10          6           0        7.226250   -7.518070    3.976490
     11          6           0        8.483800   -7.397220    4.844550
     12          6           0        8.889900   -8.752550    5.416070
     13          1           0       -0.725450   -1.374930   -3.057160
     14          1           0        0.999730   -0.845290   -3.067410
     15          1           0       -0.040870   -0.523620   -1.620590
     16          1           0        0.784820   -3.307820   -2.672470
     17          1           0       -0.253720   -2.987290   -1.228540
     18          1           0        1.639130   -1.748990   -0.140690
     19          1           0        2.678370   -2.068820   -1.586230
     20          1           0        2.447830   -4.534570   -1.207080
     21          1           0        1.409050   -4.215820    0.238890
     22          1           0        3.298110   -2.976590    1.323200
     23          1           0        4.336300   -3.293220   -0.123720
     24          1           0        4.105580   -5.759520    0.249240
     25          1           0        3.068440   -5.444480    1.697170
     26          1           0        4.959150   -4.209190    2.782950
     27          1           0        5.995360   -4.521270    1.333620
     28          1           0        5.764170   -6.988780    1.698150
     29          1           0        4.729340   -6.678460    3.148750
     30          1           0        6.622360   -5.448290    4.236110
     31          1           0        7.656300   -5.755680    2.784160
     32          1           0        7.424680   -8.224780    3.140470
     33          1           0        6.391660   -7.918800    4.593400
     34          1           0        8.291560   -6.695840    5.685660
     35          1           0        9.323300   -6.999850    4.233220
     36          1           0        9.109470   -9.467640    4.594730
     37          1           0        8.075750   -9.163860    6.050180
     38          1           0        9.801570   -8.636000    6.039090
 ---------------------------------------------------------------------
                    Distance matrix (angstroms):
                    1          2          3          4          5
     1  C    0.000000
     2  C    1.525842   0.000000
     3  C    2.523328   1.532975   0.000000
     4  C    3.883181   2.526539   1.533105   0.000000
     5  C    5.051117   3.888919   2.527799   1.533274   0.000000
     6  C    6.372118   5.053246   3.888949   2.526710   1.533112
     7  C    7.579166   6.377601   5.055859   3.889292   2.528064
     8  C    8.882446   7.579536   6.377217   5.053009   3.888904
     9  C   10.107453   8.888226   7.584165   6.377918   5.056383
    10  C   11.400323  10.105881   8.887603   7.579372   6.377478
    11  C   12.634901  11.405436  10.111638   8.887643   7.583876
    12  C   13.917375  12.628553  11.401103  10.102059   8.883394
    13  H    1.110380   2.167236   3.484104   4.688475   5.984991
    14  H    1.110902   2.177227   2.781114   4.199094   5.198315
    15  H    1.110885   2.177291   2.781114   4.199795   5.199171
    16  H    2.158353   1.111937   2.175425   2.767434   4.188284
    17  H    2.158585   1.111932   2.175399   2.768235   4.189194
    18  H    2.759980   2.171003   1.112498   2.171249   2.762504
    19  H    2.759045   2.170788   1.112517   2.170956   2.761854
    20  H    4.174004   2.759826   2.170573   1.112515   2.170950
    21  H    4.175570   2.760741   2.171141   1.112501   2.171103
    22  H    5.175404   4.183268   2.763287   2.171458   1.112467
    23  H    5.172296   4.181256   2.761175   2.171038   1.112495
    24  H    6.551004   5.171675   4.179496   2.759422   2.170389
    25  H    6.555311   5.175037   4.182563   2.761133   2.171213
    26  H    7.665675   6.564023   5.180486   4.184420   2.764114
    27  H    7.659285   6.559003   5.175393   4.181298   2.761174
    28  H    9.008085   7.655642   6.555151   5.170350   4.178693
    29  H    9.015819   7.662170   6.561376   5.174954   4.182586
    30  H   10.176116   9.026328   7.671272   6.565151   5.181555
    31  H   10.166608   9.018358   7.663338   6.559254   5.175909
    32  H   11.495500  10.160244   9.013287   7.655462   6.555629
    33  H   11.505635  10.168990   9.021716   7.662122   6.561687
    34  H   12.700441  11.523737  10.187573   9.033094   7.678146
    35  H   12.689817  11.514680  10.178684   9.026160   7.671577
    36  H   14.021099  12.698180  11.524770  10.185234   9.037171
    37  H   14.031226  12.706856  11.533122  10.191820   9.043231
    38  H   14.792931  13.544652  12.270242  11.021333   9.743136
                    6          7          8          9         10
     6  C    0.000000
     7  C    1.533211   0.000000
     8  C    2.526306   1.533160   0.000000
     9  C    3.889143   2.528328   1.533177   0.000000
    10  C    5.052685   3.889181   2.526388   1.533211   0.000000
    11  C    6.376961   5.055837   3.888500   2.527516   1.532829
    12  C    7.575385   6.372861   5.049094   3.883552   2.522709
    13  H    7.213673   8.501780   9.739331  11.023625  12.265396
    14  H    6.579829   7.686893   9.039820  10.194826  11.528750
    15  H    6.581910   7.689370   9.043934  10.199480  11.535193
    16  H    5.180521   6.566014   7.665523   9.024351  10.169901
    17  H    5.182908   6.568722   7.670118   9.029399  10.176947
    18  H    4.183324   5.179021   6.563259   7.669426   9.024930
    19  H    4.181234   5.176369   6.558752   7.664278   9.017837
    20  H    2.759477   4.180302   5.170810   6.556775   7.655323
    21  H    2.761424   4.182585   5.175350   6.561740   7.662527
    22  H    2.171333   2.763180   4.184090   5.180602   6.564699
    23  H    2.170717   2.761655   4.180629   5.176305   6.558421
    24  H    1.112509   2.170692   2.758367   4.179295   5.169475
    25  H    1.112491   2.171090   2.761249   4.182578   5.175177
    26  H    2.171490   1.112467   2.171615   2.763963   4.184850
    27  H    2.170985   1.112494   2.170764   2.761937   4.180988
    28  H    2.758672   2.170350   1.112493   2.170553   2.758380
    29  H    2.760685   2.171186   1.112495   2.171075   2.761278
    30  H    4.184474   2.764320   2.171381   1.112494   2.171653
    31  H    4.181272   2.761521   2.171016   1.112500   2.170855
    32  H    5.170556   4.179604   2.759461   2.170787   1.112539
    33  H    5.174620   4.182841   2.760813   2.171294   1.112521
    34  H    6.570993   5.187718   4.190145   2.769935   2.175364
    35  H    6.566608   5.183786   4.188312   2.768453   2.175335
    36  H    7.680243   6.578363   5.194856   4.198590   2.780209
    37  H    7.684396   6.581917   5.196666   4.199956   2.780371
    38  H    8.499939   7.216089   5.983894   4.689558   3.483728
                   11         12         13         14         15
    11  C    0.000000
    12  C    1.525933   0.000000
    13  H   13.546781  14.787828   0.000000
    14  H   12.709768  14.026724   1.804680   0.000000
    15  H   12.716698  14.035260   1.804747   1.810969   0.000000
    16  H   11.510998  12.679191   2.482935   2.503241   3.088687
    17  H   11.518427  12.688375   2.483160   3.088809   2.503733
    18  H   10.178636  11.510912   3.773189   3.129089   2.552261
    19  H   10.171027  11.501633   3.772414   2.551226   3.127793
    20  H    9.013874  10.156660   4.845186   4.378197   4.738390
    21  H    9.021391  10.166033   4.846720   4.739160   4.380899
    22  H    7.670284   9.021165   6.159700   5.394668   5.082494
    23  H    7.663438   9.012704   6.156803   5.078422   5.391746
    24  H    6.554979   7.651410   7.314080   6.692991   6.935702
    25  H    6.560893   7.659174   7.318367   6.937819   6.700015
    26  H    5.180433   6.559439   8.628707   7.824292   7.614118
    27  H    5.175911   6.553510   8.622511   7.605144   7.819503
    28  H    4.178881   5.167591   9.810375   9.118822   9.301119
    29  H    4.181904   5.172316   9.818120   9.304650   9.131460
    30  H    2.762876   4.177580  11.125393  10.302572  10.146524
    31  H    2.761271   4.174919  11.116012  10.132262  10.296733
    32  H    2.170364   2.757493  12.318916  11.587693  11.734990
    33  H    2.170754   2.759190  12.329094  11.738631  11.605163
    34  H    1.111916   2.158876  13.640215  12.806871  12.684911
    35  H    1.111930   2.158455  13.629627  12.667266  12.802200
    36  H    2.177272   1.110929  14.858298  14.100397  14.225133
    37  H    2.177399   1.110906  14.868497  14.226704  14.119985
    38  H    2.167492   1.110351  15.693408  14.869294  14.878005
                   16         17         18         19         20
    16  H    0.000000
    17  H    1.807274   0.000000
    18  H    3.093494   2.509917   0.000000
    19  H    2.510094   3.093328   1.808839   0.000000
    20  H    2.533355   3.113344   3.090411   2.505360   0.000000
    21  H    3.112900   2.535240   2.506445   3.090606   1.808727
    22  H    4.731989   4.373441   2.530255   3.110130   3.090727
    23  H    4.371424   4.731015   3.107999   2.527216   2.506180
    24  H    5.057140   5.373322   4.724381   4.362012   2.523788
    25  H    5.373452   5.063034   4.367757   4.725246   3.106085
    26  H    6.928139   6.690225   5.061896   5.373349   4.725774
    27  H    6.683633   6.925948   5.369904   5.053955   4.363520
    28  H    7.579295   7.796950   6.917564   6.671980   5.045951
    29  H    7.797888   7.590540   6.683524   6.919198   5.364215
    30  H    9.294459   9.121370   7.594326   7.802276   6.920253
    31  H    9.109559   9.291618   7.798375   7.581097   6.674524
    32  H   10.102203  10.270218   9.283020   9.097527   7.568876
    33  H   10.270865  10.118095   9.113984   9.284321   7.787964
    34  H   11.734060  11.600919  10.132744  10.285796   9.291401
    35  H   11.585563  11.732467  10.283438  10.116133   9.107500
    36  H   12.651299  12.789634  11.739154  11.589040  10.117985
    37  H   12.788099  12.669248  11.607637  11.738231  10.284534
    38  H   13.622869  13.632140  12.338801  12.329369  11.108834
                   21         22         23         24         25
    21  H    0.000000
    22  H    2.505986   0.000000
    23  H    3.090545   1.808776   0.000000
    24  H    3.107152   3.090323   2.504988   0.000000
    25  H    2.527798   2.506608   3.090474   1.808704   0.000000
    26  H    4.367550   2.531645   3.110574   3.090597   2.505922
    27  H    4.725037   3.108264   2.526742   2.506075   3.090525
    28  H    5.365242   4.724374   4.360641   2.522170   3.106738
    29  H    5.055315   4.368626   4.724764   3.104945   2.527524
    30  H    6.683962   5.064088   5.373873   4.725059   4.367674
    31  H    6.919371   5.371365   5.053897   4.362734   4.725130
    32  H    7.789655   6.919144   6.671830   5.045111   5.365632
    33  H    7.582890   6.685035   6.918939   5.362870   5.055116
    34  H    9.120677   7.602527   7.808380   6.924867   6.689913
    35  H    9.291978   7.807545   7.588953   6.680952   6.926327
    36  H   10.288412   9.306371   9.119780   7.594232   7.815095
    37  H   10.134055   9.135234   9.304028   7.810422   7.606289
    38  H   11.118215   9.826675   9.818080   8.616310   8.623985
                   26         27         28         29         30
    26  H    0.000000
    27  H    1.808779   0.000000
    28  H    3.090464   2.504982   0.000000
    29  H    2.506774   3.090465   1.808705   0.000000
    30  H    2.532451   3.110779   3.090443   2.505832   0.000000
    31  H    3.109059   2.527164   2.506015   3.090557   1.808778
    32  H    4.725635   4.361611   2.522950   3.107416   3.090799
    33  H    4.369327   4.725085   3.105021   2.527601   2.506850
    34  H    5.070908   5.379734   4.730090   4.373285   2.538465
    35  H    5.379300   5.062235   4.369681   4.731156   3.114871
    36  H    6.939669   6.693213   5.072076   5.390355   4.740200
    37  H    6.703487   6.937406   5.386515   5.078776   4.382768
    38  H    7.324488   7.318448   6.152861   6.157398   4.849702
                   31         32         33         34         35
    31  H    0.000000
    32  H    2.505406   0.000000
    33  H    3.090591   1.808801   0.000000
    34  H    3.115471   3.093078   2.509638   0.000000
    35  H    2.535078   2.509843   3.093333   1.807344   0.000000
    36  H    4.378186   2.549135   3.128162   3.089010   2.503278
    37  H    4.739042   3.126048   2.551184   2.504111   3.088797
    38  H    4.846957   3.771035   3.772517   2.483800   2.483323
                   36         37         38
    36  H    0.000000
    37  H    1.810855   0.000000
    38  H    1.804662   1.804775   0.000000
 Stoichiometry    C12H26
 Framework group  C1[X(C12H26)]
 Deg. of freedom   108
 Full point group                 C1      NOp   1
 Largest Abelian subgroup         C1      NOp   1
 Largest concise Abelian subgroup C1      NOp   1
                         Standard orientation:                         
 ---------------------------------------------------------------------
 Center     Atomic      Atomic             Coordinates (Angstroms)
 Number     Number       Type             X           Y           Z
 ---------------------------------------------------------------------
      1          6           0       -6.953004    0.302687   -0.013321
      2          6           0       -5.676411   -0.533039   -0.005052
      3          6           0       -4.430350    0.359896   -0.002071
      4          6           0       -3.150369   -0.483912    0.004698
      5          6           0       -1.903019    0.407740    0.006778
      6          6           0       -0.624087   -0.437692    0.010070
      7          6           0        0.624657    0.451900    0.010044
      8          6           0        1.901877   -0.396208    0.008417
      9          6           0        3.152688    0.490414    0.005692
     10          6           0        4.427998   -0.360631   -0.000731
     11          6           0        5.679960    0.523753   -0.005398
     12          6           0        6.950367   -0.321502   -0.014530
     13          1           0       -7.837386   -0.368736   -0.015343
     14          1           0       -6.989881    0.942164   -0.920962
     15          1           0       -6.998090    0.947731    0.889979
     16          1           0       -5.667977   -1.183533   -0.906823
     17          1           0       -5.675932   -1.178408    0.900426
     18          1           0       -4.446607    1.009843    0.900678
     19          1           0       -4.439471    1.005380   -0.908141
     20          1           0       -3.135129   -1.133643   -0.898246
     21          1           0       -3.141179   -1.129789    0.910468
     22          1           0       -1.916805    1.056732    0.910217
     23          1           0       -1.912745    1.054213   -0.898553
     24          1           0       -0.611786   -1.086452   -0.893607
     25          1           0       -0.613789   -1.084578    0.915095
     26          1           0        0.614472    1.099688    0.914395
     27          1           0        0.613586    1.099611   -0.894384
     28          1           0        1.910022   -1.043795   -0.896131
     29          1           0        1.913413   -1.044296    0.912571
     30          1           0        3.146646    1.137063    0.910928
     31          1           0        3.140435    1.139366   -0.897838
     32          1           0        4.432684   -1.007045   -0.906197
     33          1           0        4.440760   -1.009911    0.902583
     34          1           0        5.684877    1.169641    0.899676
     35          1           0        5.675263    1.173622   -0.907638
     36          1           0        6.981371   -0.961860   -0.921803
     37          1           0        6.991539   -0.966498    0.889017
     38          1           0        7.839871    0.343066   -0.017950
 ---------------------------------------------------------------------
 Rotational constants (GHZ):      6.7994116      0.1510823      0.1495297
 Standard basis: STO-3G (5D, 7F)
 There are    86 symmetry adapted cartesian basis functions of A   symmetry.
 There are    86 symmetry adapted basis functions of A   symmetry.
    86 basis functions,   258 primitive gaussians,    86 cartesian basis functions
    49 alpha electrons       49 beta electrons
       nuclear repulsion energy       673.3520894302 Hartrees.
 NAtoms=   38 NActive=   38 NUniq=   38 SFac= 1.00D+00 NAtFMM=   60 NAOKFM=F Big=F
 Integral buffers will be    131072 words long.
 Raffenetti 2 integral format.
 Two-electron integral symmetry is turned on.
 One-electron integrals computed using PRISM.
 NBasis=    86 RedAO= T EigKep=  2.02D-01  NBF=    86
 NBsUse=    86 1.00D-06 EigRej= -1.00D+00 NBFU=    86
 ExpMin= 1.69D-01 ExpMax= 7.16D+01 ExpMxC= 7.16D+01 IAcc=1 IRadAn=         1 AccDes= 0.00D+00
 Harris functional with IExCor=  402 and IRadAn=       1 diagonalized for initial guess.
 HarFok:  IExCor=  402 AccDes= 0.00D+00 IRadAn=         1 IDoV= 1 UseB2=F ITyADJ=14
 ICtDFT=  3500011 ScaDFX=  1.000000  1.000000  1.000000  1.000000
 FoFCou: FMM=F IPFlag=           0 FMFlag=      100000 FMFlg1=           0
         NFxFlg=           0 DoJE=T BraDBF=F KetDBF=T FulRan=T
         wScrn=  0.000000 ICntrl=     500 IOpCl=  0 I1Cent=   200000004 NGrid=           0
         NMat0=    1 NMatS0=      1 NMatT0=    0 NMatD0=    1 NMtDS0=    0 NMtDT0=    0
 Petite list used in FoFCou.
 Keep R1 ints in memory in canonical form, NReq=7951135.
 Requested convergence on RMS density matrix=1.00D-08 within 128 cycles.
 Requested convergence on MAX density matrix=1.00D-06.
 Requested convergence on             energy=1.00D-06.
 No special actions if energy rises.
 Integral accuracy reduced to 1.0D-05 until final iterations.
 Initial convergence to 1.0D-05 achieved.  Increase integral accuracy.
 SCF Done:  E(RB3LYP) =  -467.357460353     A.U. after   10 cycles
            NFock= 10  Conv=0.49D-08     -V/T= 2.0179

 **********************************************************************

            Population analysis using the SCF density.

 **********************************************************************

 Orbital symmetries:
       Occupied  (A) (A) (A) (A) (A) (A) (A) (A) (A) (A) (A) (A)
                 (A) (A) (A) (A) (A) (A) (A) (A) (A) (A) (A) (A)
                 (A) (A) (A) (A) (A) (A) (A) (A) (A) (A) (A) (A)
                 (A) (A) (A) (A) (A) (A) (A) (A) (A) (A) (A) (A)
                 (A)
       Virtual   (A) (A) (A) (A) (A) (A) (A) (A) (A) (A) (A) (A)
                 (A) (A) (A) (A) (A) (A) (A) (A) (A) (A) (A) (A)
                 (A) (A) (A) (A) (A) (A) (A) (A) (A) (A) (A) (A)
                 (A)
 The electronic state is 1-A.
 Alpha  occ. eigenvalues --  -10.00556 -10.00556 -10.00289 -10.00288 -10.00241
 Alpha  occ. eigenvalues --  -10.00219 -10.00185 -10.00147 -10.00107 -10.00066
 Alpha  occ. eigenvalues --   -9.99830  -9.99830  -0.77405  -0.76286  -0.74374
 Alpha  occ. eigenvalues --   -0.71725  -0.68412  -0.64549  -0.60367  -0.56382
 Alpha  occ. eigenvalues --   -0.53949  -0.53789  -0.53081  -0.52774  -0.45343
 Alpha  occ. eigenvalues --   -0.44272  -0.42505  -0.40181  -0.39128  -0.39068
 Alpha  occ. eigenvalues --   -0.37497  -0.37262  -0.36223  -0.34768  -0.34728
 Alpha  occ. eigenvalues --   -0.32403  -0.32203  -0.31606  -0.30319  -0.30229
 Alpha  occ. eigenvalues --   -0.28962  -0.28928  -0.28362  -0.28170  -0.28161
 Alpha  occ. eigenvalues --   -0.28150  -0.27744  -0.26929  -0.23292
 Alpha virt. eigenvalues --    0.32639   0.34571   0.35826   0.36093   0.37797
 Alpha virt. eigenvalues --    0.39661   0.39731   0.40020   0.40226   0.40657
 Alpha virt. eigenvalues --    0.41277   0.42825   0.43102   0.44438   0.45068
 Alpha virt. eigenvalues --    0.45351   0.46193   0.46590   0.47682   0.47736
 Alpha virt. eigenvalues --    0.48332   0.48456   0.48494   0.49567   0.49859
 Alpha virt. eigenvalues --    0.49968   0.51006   0.51234   0.51959   0.51987
 Alpha virt. eigenvalues --    0.52496   0.52742   0.53353   0.53381   0.53930
 Alpha virt. eigenvalues --    0.55580   0.56702
          Condensed to atoms (all electrons):
               1          2          3          4          5          6
     1  C    4.785015   0.363925  -0.023797   0.000829  -0.000006   0.000000
     2  C    0.363925   4.774610   0.363793  -0.022925   0.000808  -0.000006
     3  C   -0.023797   0.363793   4.785946   0.362995  -0.022813   0.000807
     4  C    0.000829  -0.022925   0.362995   4.786840   0.362986  -0.022866
     5  C   -0.000006   0.000808  -0.022813   0.362986   4.786933   0.362987
     6  C    0.000000  -0.000006   0.000807  -0.022866   0.362987   4.787020
     7  C    0.000000   0.000000  -0.000006   0.000807  -0.022794   0.362973
     8  C    0.000000   0.000000   0.000000  -0.000006   0.000807  -0.022888
     9  C    0.000000   0.000000   0.000000   0.000000  -0.000006   0.000807
    10  C    0.000000   0.000000   0.000000   0.000000   0.000000  -0.000006
    11  C    0.000000   0.000000   0.000000   0.000000   0.000000   0.000000
    12  C    0.000000   0.000000   0.000000   0.000000   0.000000   0.000000
    13  H    0.377607  -0.020383   0.001404  -0.000019   0.000000   0.000000
    14  H    0.378199  -0.020790  -0.002481   0.000011   0.000000   0.000000
    15  H    0.378202  -0.020788  -0.002479   0.000011   0.000000   0.000000
    16  H   -0.022458   0.377862  -0.021833  -0.002408   0.000010   0.000000
    17  H   -0.022445   0.377861  -0.021837  -0.002397   0.000010   0.000000
    18  H   -0.002404  -0.021997   0.377283  -0.021965  -0.002432   0.000010
    19  H   -0.002415  -0.022008   0.377281  -0.021977  -0.002443   0.000010
    20  H    0.000010  -0.002452  -0.022032   0.377303  -0.021997  -0.002465
    21  H    0.000010  -0.002442  -0.022001   0.377304  -0.021994  -0.002438
    22  H    0.000000   0.000010  -0.002424  -0.021989   0.377292  -0.021987
    23  H    0.000000   0.000010  -0.002450  -0.022009   0.377288  -0.022014
    24  H    0.000000   0.000000   0.000010  -0.002465  -0.022046   0.377297
    25  H    0.000000   0.000000   0.000010  -0.002442  -0.022005   0.377298
    26  H    0.000000   0.000000   0.000000   0.000010  -0.002415  -0.021981
    27  H    0.000000   0.000000   0.000000   0.000010  -0.002453  -0.022003
    28  H    0.000000   0.000000   0.000000   0.000000   0.000010  -0.002473
    29  H    0.000000   0.000000   0.000000   0.000000   0.000010  -0.002444
    30  H    0.000000   0.000000   0.000000   0.000000   0.000000   0.000010
    31  H    0.000000   0.000000   0.000000   0.000000   0.000000   0.000010
    32  H    0.000000   0.000000   0.000000   0.000000   0.000000   0.000000
    33  H    0.000000   0.000000   0.000000   0.000000   0.000000   0.000000
    34  H    0.000000   0.000000   0.000000   0.000000   0.000000   0.000000
    35  H    0.000000   0.000000   0.000000   0.000000   0.000000   0.000000
    36  H    0.000000   0.000000   0.000000   0.000000   0.000000   0.000000
    37  H    0.000000   0.000000   0.000000   0.000000   0.000000   0.000000
    38  H    0.000000   0.000000   0.000000   0.000000   0.000000   0.000000
               7          8          9         10         11         12
     1  C    0.000000   0.000000   0.000000   0.000000   0.000000   0.000000
     2  C    0.000000   0.000000   0.000000   0.000000   0.000000   0.000000
     3  C   -0.000006   0.000000   0.000000   0.000000   0.000000   0.000000
     4  C    0.000807  -0.000006   0.000000   0.000000   0.000000   0.000000
     5  C   -0.022794   0.000807  -0.000006   0.000000   0.000000   0.000000
     6  C    0.362973  -0.022888   0.000807  -0.000006   0.000000   0.000000
     7  C    4.786947   0.362982  -0.022779   0.000807  -0.000006   0.000000
     8  C    0.362982   4.787002   0.362996  -0.022889   0.000809  -0.000006
     9  C   -0.022779   0.362996   4.786782   0.362987  -0.022873   0.000828
    10  C    0.000807  -0.022889   0.362987   4.785991   0.363808  -0.023830
    11  C   -0.000006   0.000809  -0.022873   0.363808   4.774575   0.363922
    12  C    0.000000  -0.000006   0.000828  -0.023830   0.363922   4.785038
    13  H    0.000000   0.000000   0.000000   0.000000   0.000000   0.000000
    14  H    0.000000   0.000000   0.000000   0.000000   0.000000   0.000000
    15  H    0.000000   0.000000   0.000000   0.000000   0.000000   0.000000
    16  H    0.000000   0.000000   0.000000   0.000000   0.000000   0.000000
    17  H    0.000000   0.000000   0.000000   0.000000   0.000000   0.000000
    18  H    0.000000   0.000000   0.000000   0.000000   0.000000   0.000000
    19  H    0.000000   0.000000   0.000000   0.000000   0.000000   0.000000
    20  H    0.000010   0.000000   0.000000   0.000000   0.000000   0.000000
    21  H    0.000010   0.000000   0.000000   0.000000   0.000000   0.000000
    22  H   -0.002424   0.000010   0.000000   0.000000   0.000000   0.000000
    23  H   -0.002447   0.000010   0.000000   0.000000   0.000000   0.000000
    24  H   -0.022025  -0.002476   0.000010   0.000000   0.000000   0.000000
    25  H   -0.022010  -0.002438   0.000010   0.000000   0.000000   0.000000
    26  H    0.377292  -0.021977  -0.002417   0.000010   0.000000   0.000000
    27  H    0.377288  -0.022018  -0.002446   0.000010   0.000000   0.000000
    28  H   -0.022040   0.377300  -0.022040  -0.002476   0.000010   0.000000
    29  H   -0.022001   0.377297  -0.022017  -0.002439   0.000010   0.000000
    30  H   -0.002413  -0.021974   0.377298  -0.021969  -0.002422   0.000010
    31  H   -0.002450  -0.021987   0.377297  -0.022010  -0.002442   0.000010
    32  H    0.000010  -0.002465  -0.021988   0.377282  -0.022035  -0.002430
    33  H    0.000010  -0.002443  -0.021967   0.377285  -0.022015  -0.002409
    34  H    0.000000   0.000010  -0.002382  -0.021838   0.377862  -0.022426
    35  H    0.000000   0.000010  -0.002403  -0.021835   0.377861  -0.022450
    36  H    0.000000   0.000000   0.000011  -0.002488  -0.020787   0.378191
    37  H    0.000000   0.000000   0.000011  -0.002483  -0.020783   0.378195
    38  H    0.000000   0.000000  -0.000019   0.001405  -0.020374   0.377611
              13         14         15         16         17         18
     1  C    0.377607   0.378199   0.378202  -0.022458  -0.022445  -0.002404
     2  C   -0.020383  -0.020790  -0.020788   0.377862   0.377861  -0.021997
     3  C    0.001404  -0.002481  -0.002479  -0.021833  -0.021837   0.377283
     4  C   -0.000019   0.000011   0.000011  -0.002408  -0.002397  -0.021965
     5  C    0.000000   0.000000   0.000000   0.000010   0.000010  -0.002432
     6  C    0.000000   0.000000   0.000000   0.000000   0.000000   0.000010
     7  C    0.000000   0.000000   0.000000   0.000000   0.000000   0.000000
     8  C    0.000000   0.000000   0.000000   0.000000   0.000000   0.000000
     9  C    0.000000   0.000000   0.000000   0.000000   0.000000   0.000000
    10  C    0.000000   0.000000   0.000000   0.000000   0.000000   0.000000
    11  C    0.000000   0.000000   0.000000   0.000000   0.000000   0.000000
    12  C    0.000000   0.000000   0.000000   0.000000   0.000000   0.000000
    13  H    0.618688  -0.020221  -0.020217  -0.002428  -0.002427   0.000013
    14  H   -0.020221   0.617827  -0.020179  -0.002501   0.001972  -0.000019
    15  H   -0.020217  -0.020179   0.617807   0.001972  -0.002497   0.000606
    16  H   -0.002428  -0.002501   0.001972   0.628170  -0.021353   0.001912
    17  H   -0.002427   0.001972  -0.002497  -0.021353   0.628147  -0.002412
    18  H    0.000013  -0.000019   0.000606   0.001912  -0.002412   0.629324
    19  H    0.000014   0.000607  -0.000019  -0.002406   0.001913  -0.021434
    20  H    0.000000   0.000002  -0.000001   0.000566  -0.000004   0.001922
    21  H    0.000000  -0.000001   0.000002  -0.000004   0.000564  -0.002433
    22  H    0.000000   0.000000   0.000000  -0.000001   0.000002   0.000569
    23  H    0.000000   0.000000   0.000000   0.000002  -0.000001  -0.000005
    24  H    0.000000   0.000000   0.000000   0.000000   0.000000  -0.000001
    25  H    0.000000   0.000000   0.000000   0.000000   0.000000   0.000002
    26  H    0.000000   0.000000   0.000000   0.000000   0.000000   0.000000
    27  H    0.000000   0.000000   0.000000   0.000000   0.000000   0.000000
    28  H    0.000000   0.000000   0.000000   0.000000   0.000000   0.000000
    29  H    0.000000   0.000000   0.000000   0.000000   0.000000   0.000000
    30  H    0.000000   0.000000   0.000000   0.000000   0.000000   0.000000
    31  H    0.000000   0.000000   0.000000   0.000000   0.000000   0.000000
    32  H    0.000000   0.000000   0.000000   0.000000   0.000000   0.000000
    33  H    0.000000   0.000000   0.000000   0.000000   0.000000   0.000000
    34  H    0.000000   0.000000   0.000000   0.000000   0.000000   0.000000
    35  H    0.000000   0.000000   0.000000   0.000000   0.000000   0.000000
    36  H    0.000000   0.000000   0.000000   0.000000   0.000000   0.000000
    37  H    0.000000   0.000000   0.000000   0.000000   0.000000   0.000000
    38  H    0.000000   0.000000   0.000000   0.000000   0.000000   0.000000
              19         20         21         22         23         24
     1  C   -0.002415   0.000010   0.000010   0.000000   0.000000   0.000000
     2  C   -0.022008  -0.002452  -0.002442   0.000010   0.000010   0.000000
     3  C    0.377281  -0.022032  -0.022001  -0.002424  -0.002450   0.000010
     4  C   -0.021977   0.377303   0.377304  -0.021989  -0.022009  -0.002465
     5  C   -0.002443  -0.021997  -0.021994   0.377292   0.377288  -0.022046
     6  C    0.000010  -0.002465  -0.002438  -0.021987  -0.022014   0.377297
     7  C    0.000000   0.000010   0.000010  -0.002424  -0.002447  -0.022025
     8  C    0.000000   0.000000   0.000000   0.000010   0.000010  -0.002476
     9  C    0.000000   0.000000   0.000000   0.000000   0.000000   0.000010
    10  C    0.000000   0.000000   0.000000   0.000000   0.000000   0.000000
    11  C    0.000000   0.000000   0.000000   0.000000   0.000000   0.000000
    12  C    0.000000   0.000000   0.000000   0.000000   0.000000   0.000000
    13  H    0.000014   0.000000   0.000000   0.000000   0.000000   0.000000
    14  H    0.000607   0.000002  -0.000001   0.000000   0.000000   0.000000
    15  H   -0.000019  -0.000001   0.000002   0.000000   0.000000   0.000000
    16  H   -0.002406   0.000566  -0.000004  -0.000001   0.000002   0.000000
    17  H    0.001913  -0.000004   0.000564   0.000002  -0.000001   0.000000
    18  H   -0.021434   0.001922  -0.002433   0.000569  -0.000005  -0.000001
    19  H    0.629379  -0.002440   0.001922  -0.000005   0.000572   0.000003
    20  H   -0.002440   0.629884  -0.021456   0.001921  -0.002428   0.000573
    21  H    0.001922  -0.021456   0.629812  -0.002440   0.001922  -0.000004
    22  H   -0.000005   0.001921  -0.002440   0.629914  -0.021468   0.001924
    23  H    0.000572  -0.002428   0.001922  -0.021468   0.630019  -0.002441
    24  H    0.000003   0.000573  -0.000004   0.001924  -0.002441   0.630119
    25  H   -0.000001  -0.000005   0.000569  -0.002433   0.001923  -0.021460
    26  H    0.000000  -0.000001   0.000002   0.000567  -0.000004   0.001922
    27  H    0.000000   0.000002  -0.000001  -0.000004   0.000572  -0.002427
    28  H    0.000000   0.000000   0.000000  -0.000001   0.000003   0.000574
    29  H    0.000000   0.000000   0.000000   0.000002  -0.000001  -0.000005
    30  H    0.000000   0.000000   0.000000   0.000000   0.000000  -0.000001
    31  H    0.000000   0.000000   0.000000   0.000000   0.000000   0.000003
    32  H    0.000000   0.000000   0.000000   0.000000   0.000000   0.000000
    33  H    0.000000   0.000000   0.000000   0.000000   0.000000   0.000000
    34  H    0.000000   0.000000   0.000000   0.000000   0.000000   0.000000
    35  H    0.000000   0.000000   0.000000   0.000000   0.000000   0.000000
    36  H    0.000000   0.000000   0.000000   0.000000   0.000000   0.000000
    37  H    0.000000   0.000000   0.000000   0.000000   0.000000   0.000000
    38  H    0.000000   0.000000   0.000000   0.000000   0.000000   0.000000
              25         26         27         28         29         30
     1  C    0.000000   0.000000   0.000000   0.000000   0.000000   0.000000
     2  C    0.000000   0.000000   0.000000   0.000000   0.000000   0.000000
     3  C    0.000010   0.000000   0.000000   0.000000   0.000000   0.000000
     4  C   -0.002442   0.000010   0.000010   0.000000   0.000000   0.000000
     5  C   -0.022005  -0.002415  -0.002453   0.000010   0.000010   0.000000
     6  C    0.377298  -0.021981  -0.022003  -0.002473  -0.002444   0.000010
     7  C   -0.022010   0.377292   0.377288  -0.022040  -0.022001  -0.002413
     8  C   -0.002438  -0.021977  -0.022018   0.377300   0.377297  -0.021974
     9  C    0.000010  -0.002417  -0.002446  -0.022040  -0.022017   0.377298
    10  C    0.000000   0.000010   0.000010  -0.002476  -0.002439  -0.021969
    11  C    0.000000   0.000000   0.000000   0.000010   0.000010  -0.002422
    12  C    0.000000   0.000000   0.000000   0.000000   0.000000   0.000010
    13  H    0.000000   0.000000   0.000000   0.000000   0.000000   0.000000
    14  H    0.000000   0.000000   0.000000   0.000000   0.000000   0.000000
    15  H    0.000000   0.000000   0.000000   0.000000   0.000000   0.000000
    16  H    0.000000   0.000000   0.000000   0.000000   0.000000   0.000000
    17  H    0.000000   0.000000   0.000000   0.000000   0.000000   0.000000
    18  H    0.000002   0.000000   0.000000   0.000000   0.000000   0.000000
    19  H   -0.000001   0.000000   0.000000   0.000000   0.000000   0.000000
    20  H   -0.000005  -0.000001   0.000002   0.000000   0.000000   0.000000
    21  H    0.000569   0.000002  -0.000001   0.000000   0.000000   0.000000
    22  H   -0.002433   0.000567  -0.000004  -0.000001   0.000002   0.000000
    23  H    0.001923  -0.000004   0.000572   0.000003  -0.000001   0.000000
    24  H   -0.021460   0.001922  -0.002427   0.000574  -0.000005  -0.000001
    25  H    0.630001  -0.002442   0.001922  -0.000004   0.000568   0.000002
    26  H   -0.002442   0.629895  -0.021471   0.001923  -0.002432   0.000567
    27  H    0.001922  -0.021471   0.630029  -0.002440   0.001923  -0.000004
    28  H   -0.000004   0.001923  -0.002440   0.630115  -0.021458   0.001923
    29  H    0.000568  -0.002432   0.001923  -0.021458   0.629995  -0.002443
    30  H    0.000002   0.000567  -0.000004   0.001923  -0.002443   0.629719
    31  H   -0.000001  -0.000004   0.000573  -0.002428   0.001922  -0.021465
    32  H    0.000000  -0.000001   0.000003   0.000574  -0.000005   0.001920
    33  H    0.000000   0.000002  -0.000001  -0.000005   0.000569  -0.002431
    34  H    0.000000   0.000000   0.000000  -0.000001   0.000002   0.000563
    35  H    0.000000   0.000000   0.000000   0.000002  -0.000001  -0.000004
    36  H    0.000000   0.000000   0.000000   0.000000   0.000000  -0.000001
    37  H    0.000000   0.000000   0.000000   0.000000   0.000000   0.000002
    38  H    0.000000   0.000000   0.000000   0.000000   0.000000   0.000000
              31         32         33         34         35         36
     1  C    0.000000   0.000000   0.000000   0.000000   0.000000   0.000000
     2  C    0.000000   0.000000   0.000000   0.000000   0.000000   0.000000
     3  C    0.000000   0.000000   0.000000   0.000000   0.000000   0.000000
     4  C    0.000000   0.000000   0.000000   0.000000   0.000000   0.000000
     5  C    0.000000   0.000000   0.000000   0.000000   0.000000   0.000000
     6  C    0.000010   0.000000   0.000000   0.000000   0.000000   0.000000
     7  C   -0.002450   0.000010   0.000010   0.000000   0.000000   0.000000
     8  C   -0.021987  -0.002465  -0.002443   0.000010   0.000010   0.000000
     9  C    0.377297  -0.021988  -0.021967  -0.002382  -0.002403   0.000011
    10  C   -0.022010   0.377282   0.377285  -0.021838  -0.021835  -0.002488
    11  C   -0.002442  -0.022035  -0.022015   0.377862   0.377861  -0.020787
    12  C    0.000010  -0.002430  -0.002409  -0.022426  -0.022450   0.378191
    13  H    0.000000   0.000000   0.000000   0.000000   0.000000   0.000000
    14  H    0.000000   0.000000   0.000000   0.000000   0.000000   0.000000
    15  H    0.000000   0.000000   0.000000   0.000000   0.000000   0.000000
    16  H    0.000000   0.000000   0.000000   0.000000   0.000000   0.000000
    17  H    0.000000   0.000000   0.000000   0.000000   0.000000   0.000000
    18  H    0.000000   0.000000   0.000000   0.000000   0.000000   0.000000
    19  H    0.000000   0.000000   0.000000   0.000000   0.000000   0.000000
    20  H    0.000000   0.000000   0.000000   0.000000   0.000000   0.000000
    21  H    0.000000   0.000000   0.000000   0.000000   0.000000   0.000000
    22  H    0.000000   0.000000   0.000000   0.000000   0.000000   0.000000
    23  H    0.000000   0.000000   0.000000   0.000000   0.000000   0.000000
    24  H    0.000003   0.000000   0.000000   0.000000   0.000000   0.000000
    25  H   -0.000001   0.000000   0.000000   0.000000   0.000000   0.000000
    26  H   -0.000004  -0.000001   0.000002   0.000000   0.000000   0.000000
    27  H    0.000573   0.000003  -0.000001   0.000000   0.000000   0.000000
    28  H   -0.002428   0.000574  -0.000005  -0.000001   0.000002   0.000000
    29  H    0.001922  -0.000005   0.000569   0.000002  -0.000001   0.000000
    30  H   -0.021465   0.001920  -0.002431   0.000563  -0.000004  -0.000001
    31  H    0.629827  -0.002438   0.001921  -0.000004   0.000566   0.000002
    32  H   -0.002438   0.629459  -0.021428   0.001914  -0.002407   0.000609
    33  H    0.001921  -0.021428   0.629369  -0.002416   0.001913  -0.000019
    34  H   -0.000004   0.001914  -0.002416   0.628097  -0.021354   0.001970
    35  H    0.000566  -0.002407   0.001913  -0.021354   0.628145  -0.002500
    36  H    0.000002   0.000609  -0.000019   0.001970  -0.002500   0.617856
    37  H   -0.000001  -0.000019   0.000606  -0.002494   0.001971  -0.020185
    38  H    0.000000   0.000014   0.000013  -0.002422  -0.002424  -0.020222
              37         38
     1  C    0.000000   0.000000
     2  C    0.000000   0.000000
     3  C    0.000000   0.000000
     4  C    0.000000   0.000000
     5  C    0.000000   0.000000
     6  C    0.000000   0.000000
     7  C    0.000000   0.000000
     8  C    0.000000   0.000000
     9  C    0.000011  -0.000019
    10  C   -0.002483   0.001405
    11  C   -0.020783  -0.020374
    12  C    0.378195   0.377611
    13  H    0.000000   0.000000
    14  H    0.000000   0.000000
    15  H    0.000000   0.000000
    16  H    0.000000   0.000000
    17  H    0.000000   0.000000
    18  H    0.000000   0.000000
    19  H    0.000000   0.000000
    20  H    0.000000   0.000000
    21  H    0.000000   0.000000
    22  H    0.000000   0.000000
    23  H    0.000000   0.000000
    24  H    0.000000   0.000000
    25  H    0.000000   0.000000
    26  H    0.000000   0.000000
    27  H    0.000000   0.000000
    28  H    0.000000   0.000000
    29  H    0.000000   0.000000
    30  H    0.000002   0.000000
    31  H   -0.000001   0.000000
    32  H   -0.000019   0.000014
    33  H    0.000606   0.000013
    34  H   -0.002494  -0.002422
    35  H    0.001971  -0.002424
    36  H   -0.020185  -0.020222
    37  H    0.617826  -0.020217
    38  H   -0.020217   0.618666
 Mulliken charges:
               1
     1  C   -0.210272
     2  C   -0.125088
     3  C   -0.125376
     4  C   -0.125637
     5  C   -0.125739
     6  C   -0.125656
     7  C   -0.125739
     8  C   -0.125663
     9  C   -0.125700
    10  C   -0.125322
    11  C   -0.125120
    12  C   -0.210254
    13  H    0.067969
    14  H    0.067573
    15  H    0.067579
    16  H    0.064899
    17  H    0.064904
    18  H    0.063458
    19  H    0.063447
    20  H    0.063085
    21  H    0.063098
    22  H    0.062966
    23  H    0.062948
    24  H    0.062918
    25  H    0.062935
    26  H    0.062956
    27  H    0.062936
    28  H    0.062933
    29  H    0.062946
    30  H    0.063114
    31  H    0.063099
    32  H    0.063430
    33  H    0.063445
    34  H    0.064917
    35  H    0.064908
    36  H    0.067562
    37  H    0.067570
    38  H    0.067970
 Sum of Mulliken charges =   0.00000
 Mulliken charges with hydrogens summed into heavy atoms:
               1
     1  C   -0.007151
     2  C    0.004715
     3  C    0.001529
     4  C    0.000546
     5  C    0.000175
     6  C    0.000197
     7  C    0.000154
     8  C    0.000216
     9  C    0.000513
    10  C    0.001552
    11  C    0.004705
    12  C   -0.007151
 Electronic spatial extent (au):  <R**2>=           7355.2289
 Charge=              0.0000 electrons
 Dipole moment (field-independent basis, Debye):
    X=              0.0001    Y=             -0.0013    Z=             -0.0007  Tot=              0.0015
 Quadrupole moment (field-independent basis, Debye-Ang):
   XX=            -78.9171   YY=            -76.3776   ZZ=            -74.1746
   XY=              0.4887   XZ=             -0.0004   YZ=              0.0008
 Traceless Quadrupole moment (field-independent basis, Debye-Ang):
   XX=             -2.4274   YY=              0.1122   ZZ=              2.3152
   XY=              0.4887   XZ=             -0.0004   YZ=              0.0008
 Octapole moment (field-independent basis, Debye-Ang**2):
  XXX=              0.0629  YYY=             -0.0042  ZZZ=              0.0045  XYY=             -0.0274
  XXY=              0.0222  XXZ=              0.1238  XZZ=             -0.0037  YZZ=              0.0038
  YYZ=              0.0036  XYZ=             -0.0384
 Hexadecapole moment (field-independent basis, Debye-Ang**3):
 XXXX=          -9415.2437 YYYY=           -256.6079 ZZZZ=           -145.1827 XXXY=             62.4297
 XXXZ=              0.0197 YYYX=              0.4226 YYYZ=              0.0141 ZZZX=              0.0113
 ZZZY=             -0.0074 XXYY=          -1571.1197 XXZZ=          -1521.5280 YYZZ=            -57.6381
 XXYZ=             -0.0119 YYXZ=              0.0003 ZZXY=             -4.5239
 N-N= 6.733520894302D+02 E-N=-2.425045403539D+03  KE= 4.591469907826D+02
 Calling FoFJK, ICntrl=      2127 FMM=F ISym2X=0 I1Cent= 0 IOpClX= 0 NMat=1 NMatS=1 NMatT=0.
 ***** Axes restored to original set *****
 -------------------------------------------------------------------
 Center     Atomic                   Forces (Hartrees/Bohr)
 Number     Number              X              Y              Z
 -------------------------------------------------------------------
      1        6          -0.010064458    0.018141080   -0.011273579
      2        6          -0.010243291   -0.012857106   -0.004501754
      3        6           0.006427913    0.011402950    0.002087057
      4        6          -0.006657697   -0.011819164   -0.002181590
      5        6           0.006681170    0.011790178    0.002186202
      6        6          -0.006692493   -0.011756006   -0.002254706
      7        6           0.006732343    0.011750513    0.002249384
      8        6          -0.006691166   -0.011747595   -0.002270599
      9        6           0.006721804    0.011796137    0.002273978
     10        6          -0.006470347   -0.011358986   -0.002230728
     11        6           0.010316156    0.012784889    0.004654627
     12        6           0.010076573   -0.018287487    0.010979279
     13        1           0.005692005    0.004493516    0.003106030
     14        1          -0.006852007   -0.000484563    0.004617878
     15        1           0.001798221   -0.003159012   -0.007423606
     16        1          -0.002529069    0.001307793    0.006696783
     17        1           0.005538445   -0.001172304   -0.004553159
     18        1           0.003459363   -0.002423966   -0.006195148
     19        1          -0.005009613    0.000193156    0.005602770
     20        1          -0.003590307    0.002479076    0.006158240
     21        1           0.004905200   -0.000098692   -0.005713009
     22        1           0.003556008   -0.002460791   -0.006127973
     23        1          -0.004918664    0.000151623    0.005701593
     24        1          -0.003587864    0.002436680    0.006174206
     25        1           0.004901018   -0.000096498   -0.005702499
     26        1           0.003555292   -0.002462045   -0.006126634
     27        1          -0.004908645    0.000131261    0.005711488
     28        1          -0.003586456    0.002406884    0.006176224
     29        1           0.004900040   -0.000085073   -0.005706356
     30        1           0.003568394   -0.002478174   -0.006138414
     31        1          -0.004898318    0.000087986    0.005726106
     32        1          -0.003475440    0.002370514    0.006253125
     33        1           0.004986591   -0.000111352   -0.005618461
     34        1           0.002521507   -0.001245962   -0.006684484
     35        1          -0.005525985    0.001145940    0.004593428
     36        1          -0.001769591    0.003094131    0.007484197
     37        1           0.006840977    0.000564642   -0.004618810
     38        1          -0.005707612   -0.004424173   -0.003111087
 -------------------------------------------------------------------
 Cartesian Forces:  Max     0.018287487 RMS     0.006416768

 GradGradGradGradGradGradGradGradGradGradGradGradGradGradGradGradGradGrad
 Berny optimization.
 FormGI is forming the generalized inverse of G from B-inverse, IUseBI=4.
 GSVD:  received Info=                   1 from GESDD.
 Internal  Forces:  Max     0.023519105 RMS     0.005948654
 Search for a local minimum.
 Step number   1 out of a maximum of  218
 All quantities printed in internal units (Hartrees-Bohrs-Radians)
 Mixed Optimization -- RFO/linear search
 Second derivative matrix not updated -- first step.
 ITU=  0
     Eigenvalues ---    0.00326   0.00327   0.00327   0.00327   0.00327
     Eigenvalues ---    0.00328   0.00328   0.00330   0.00332   0.00423
     Eigenvalues ---    0.00424   0.03730   0.03732   0.03734   0.03735
     Eigenvalues ---    0.03740   0.03742   0.03742   0.03743   0.03760
     Eigenvalues ---    0.03764   0.04903   0.04904   0.04904   0.04906
     Eigenvalues ---    0.04906   0.04906   0.04906   0.04907   0.04932
     Eigenvalues ---    0.04933   0.05674   0.05674   0.05781   0.05784
     Eigenvalues ---    0.07961   0.07962   0.07965   0.07967   0.07977
     Eigenvalues ---    0.07978   0.07980   0.07983   0.08020   0.08026
     Eigenvalues ---    0.11928   0.11929   0.11931   0.11932   0.11940
     Eigenvalues ---    0.11941   0.11943   0.11945   0.11963   0.11968
     Eigenvalues ---    0.16000   0.16000   0.16000   0.16000   0.16000
     Eigenvalues ---    0.16000   0.21956   0.21956   0.21957   0.21957
     Eigenvalues ---    0.21958   0.21958   0.21959   0.21959   0.21959
     Eigenvalues ---    0.21959   0.29123   0.29129   0.29129   0.29132
     Eigenvalues ---    0.29133   0.29138   0.29139   0.29150   0.29164
     Eigenvalues ---    0.29802   0.29811   0.32333   0.32335   0.32335
     Eigenvalues ---    0.32335   0.32336   0.32337   0.32337   0.32337
     Eigenvalues ---    0.32337   0.32337   0.32337   0.32337   0.32337
     Eigenvalues ---    0.32338   0.32340   0.32340   0.32396   0.32396
     Eigenvalues ---    0.32397   0.32398   0.32502   0.32504   0.32505
     Eigenvalues ---    0.32506   0.32560   0.32563
 RFO step:  Lambda=-2.61400244D-02 EMin= 3.25793447D-03
 Linear search not attempted -- first point.
 Iteration  1 RMS(Cart)=  0.13159844 RMS(Int)=  0.00025272
 Iteration  2 RMS(Cart)=  0.00035417 RMS(Int)=  0.00011186
 Iteration  3 RMS(Cart)=  0.00000028 RMS(Int)=  0.00011186
 Variable       Old X    -DE/DX   Delta X   Delta X   Delta X     New X
                                 (Linear)    (Quad)   (Total)
    R1        2.88342   0.02352   0.00000   0.07253   0.07253   2.95596
    R2        2.09831  -0.00692   0.00000  -0.01967  -0.01967   2.07865
    R3        2.09930  -0.00786   0.00000  -0.02237  -0.02237   2.07693
    R4        2.09927  -0.00784   0.00000  -0.02234  -0.02234   2.07693
    R5        2.89690   0.02067   0.00000   0.06507   0.06507   2.96197
    R6        2.10126  -0.00629   0.00000  -0.01797  -0.01797   2.08328
    R7        2.10125  -0.00629   0.00000  -0.01796  -0.01796   2.08329
    R8        2.89715   0.02132   0.00000   0.06714   0.06714   2.96429
    R9        2.10232  -0.00680   0.00000  -0.01945  -0.01945   2.08287
   R10        2.10235  -0.00681   0.00000  -0.01948  -0.01948   2.08287
   R11        2.89747   0.02122   0.00000   0.06686   0.06686   2.96432
   R12        2.10235  -0.00683   0.00000  -0.01954  -0.01954   2.08280
   R13        2.10232  -0.00682   0.00000  -0.01953  -0.01953   2.08280
   R14        2.89716   0.02134   0.00000   0.06722   0.06722   2.96438
   R15        2.10226  -0.00679   0.00000  -0.01943  -0.01943   2.08283
   R16        2.10231  -0.00681   0.00000  -0.01948  -0.01948   2.08284
   R17        2.89735   0.02129   0.00000   0.06707   0.06707   2.96441
   R18        2.10234  -0.00682   0.00000  -0.01951  -0.01951   2.08283
   R19        2.10230  -0.00681   0.00000  -0.01949  -0.01949   2.08281
   R20        2.89725   0.02131   0.00000   0.06713   0.06713   2.96438
   R21        2.10226  -0.00680   0.00000  -0.01945  -0.01945   2.08281
   R22        2.10231  -0.00681   0.00000  -0.01948  -0.01948   2.08283
   R23        2.89729   0.02129   0.00000   0.06706   0.06706   2.96434
   R24        2.10231  -0.00681   0.00000  -0.01947  -0.01947   2.08284
   R25        2.10231  -0.00681   0.00000  -0.01949  -0.01949   2.08282
   R26        2.89735   0.02125   0.00000   0.06694   0.06694   2.96429
   R27        2.10231  -0.00682   0.00000  -0.01952  -0.01952   2.08279
   R28        2.10232  -0.00682   0.00000  -0.01951  -0.01951   2.08281
   R29        2.89663   0.02077   0.00000   0.06536   0.06536   2.96199
   R30        2.10239  -0.00682   0.00000  -0.01953  -0.01953   2.08287
   R31        2.10236  -0.00682   0.00000  -0.01950  -0.01950   2.08286
   R32        2.88360   0.02346   0.00000   0.07236   0.07236   2.95595
   R33        2.10122  -0.00628   0.00000  -0.01793  -0.01793   2.08328
   R34        2.10124  -0.00629   0.00000  -0.01796  -0.01796   2.08328
   R35        2.09935  -0.00787   0.00000  -0.02242  -0.02242   2.07693
   R36        2.09931  -0.00786   0.00000  -0.02238  -0.02238   2.07693
   R37        2.09826  -0.00690   0.00000  -0.01961  -0.01961   2.07865
    A1        1.91259   0.00482   0.00000   0.02823   0.02800   1.94059
    A2        1.92568   0.00210   0.00000   0.01009   0.00998   1.93567
    A3        1.92579   0.00209   0.00000   0.01006   0.00995   1.93574
    A4        1.89668  -0.00307   0.00000  -0.01421  -0.01442   1.88226
    A5        1.89681  -0.00308   0.00000  -0.01431  -0.01452   1.88228
    A6        1.90579  -0.00303   0.00000  -0.02075  -0.02074   1.88504
    A7        1.94017   0.00615   0.00000   0.03155   0.03139   1.97156
    A8        1.89903  -0.00047   0.00000   0.00678   0.00681   1.90584
    A9        1.89934  -0.00050   0.00000   0.00648   0.00651   1.90586
   A10        1.91365  -0.00223   0.00000  -0.01055  -0.01091   1.90274
   A11        1.91361  -0.00221   0.00000  -0.01047  -0.01082   1.90280
   A12        1.89744  -0.00086   0.00000  -0.02479  -0.02497   1.87247
   A13        1.93697   0.00745   0.00000   0.03695   0.03675   1.97373
   A14        1.90710  -0.00184   0.00000  -0.00437  -0.00455   1.90255
   A15        1.90679  -0.00182   0.00000  -0.00406  -0.00425   1.90254
   A16        1.90728  -0.00167   0.00000  -0.00280  -0.00295   1.90433
   A17        1.90687  -0.00165   0.00000  -0.00252  -0.00268   1.90419
   A18        1.89842  -0.00060   0.00000  -0.02441  -0.02450   1.87392
   A19        1.93814   0.00718   0.00000   0.03582   0.03562   1.97376
   A20        1.90635  -0.00164   0.00000  -0.00286  -0.00304   1.90332
   A21        1.90713  -0.00171   0.00000  -0.00360  -0.00376   1.90337
   A22        1.90666  -0.00166   0.00000  -0.00298  -0.00316   1.90350
   A23        1.90688  -0.00165   0.00000  -0.00310  -0.00325   1.90363
   A24        1.89825  -0.00066   0.00000  -0.02450  -0.02459   1.87366
   A25        1.93688   0.00740   0.00000   0.03680   0.03660   1.97348
   A26        1.90739  -0.00175   0.00000  -0.00368  -0.00384   1.90355
   A27        1.90680  -0.00171   0.00000  -0.00312  -0.00330   1.90349
   A28        1.90742  -0.00175   0.00000  -0.00363  -0.00379   1.90363
   A29        1.90656  -0.00170   0.00000  -0.00296  -0.00314   1.90341
   A30        1.89839  -0.00063   0.00000  -0.02460  -0.02469   1.87369
   A31        1.93850   0.00715   0.00000   0.03571   0.03551   1.97401
   A32        1.90610  -0.00161   0.00000  -0.00261  -0.00278   1.90332
   A33        1.90723  -0.00170   0.00000  -0.00360  -0.00376   1.90347
   A34        1.90639  -0.00165   0.00000  -0.00287  -0.00305   1.90334
   A35        1.90695  -0.00166   0.00000  -0.00329  -0.00344   1.90350
   A36        1.89823  -0.00067   0.00000  -0.02457  -0.02465   1.87358
   A37        1.93643   0.00749   0.00000   0.03718   0.03698   1.97341
   A38        1.90751  -0.00177   0.00000  -0.00372  -0.00388   1.90363
   A39        1.90680  -0.00174   0.00000  -0.00312  -0.00331   1.90349
   A40        1.90774  -0.00180   0.00000  -0.00396  -0.00412   1.90362
   A41        1.90657  -0.00172   0.00000  -0.00299  -0.00317   1.90339
   A42        1.89840  -0.00061   0.00000  -0.02459  -0.02468   1.87371
   A43        1.93879   0.00709   0.00000   0.03544   0.03525   1.97404
   A44        1.90601  -0.00160   0.00000  -0.00257  -0.00275   1.90326
   A45        1.90713  -0.00168   0.00000  -0.00349  -0.00364   1.90349
   A46        1.90626  -0.00162   0.00000  -0.00272  -0.00289   1.90337
   A47        1.90696  -0.00165   0.00000  -0.00332  -0.00347   1.90350
   A48        1.89825  -0.00068   0.00000  -0.02459  -0.02467   1.87358
   A49        1.93651   0.00745   0.00000   0.03699   0.03679   1.97330
   A50        1.90738  -0.00173   0.00000  -0.00342  -0.00358   1.90380
   A51        1.90688  -0.00173   0.00000  -0.00308  -0.00326   1.90362
   A52        1.90770  -0.00181   0.00000  -0.00407  -0.00423   1.90347
   A53        1.90662  -0.00172   0.00000  -0.00312  -0.00330   1.90332
   A54        1.89835  -0.00061   0.00000  -0.02450  -0.02460   1.87375
   A55        1.93814   0.00726   0.00000   0.03614   0.03595   1.97408
   A56        1.90649  -0.00160   0.00000  -0.00232  -0.00248   1.90401
   A57        1.90719  -0.00163   0.00000  -0.00280  -0.00294   1.90425
   A58        1.90637  -0.00175   0.00000  -0.00368  -0.00387   1.90250
   A59        1.90691  -0.00178   0.00000  -0.00419  -0.00436   1.90255
[...]
    18  H    0.000000   0.000000   0.000000   0.000000   0.000000   0.000000
    19  H    0.000000   0.000000   0.000000   0.000000   0.000000   0.000000
    20  H    0.000005   0.000000   0.000000   0.000000   0.000000   0.000000
    21  H    0.000005   0.000000   0.000000   0.000000   0.000000   0.000000
    22  H   -0.001945   0.000005   0.000000   0.000000   0.000000   0.000000
    23  H   -0.001945   0.000005   0.000000   0.000000   0.000000   0.000000
    24  H   -0.021224  -0.001945   0.000005   0.000000   0.000000   0.000000
    25  H   -0.021224  -0.001945   0.000005   0.000000   0.000000   0.000000
    26  H    0.377521  -0.021227  -0.001945   0.000005   0.000000   0.000000
    27  H    0.377521  -0.021227  -0.001945   0.000005   0.000000   0.000000
    28  H   -0.021225   0.377523  -0.021227  -0.001946   0.000005   0.000000
    29  H   -0.021225   0.377523  -0.021227  -0.001946   0.000005   0.000000
    30  H   -0.001945  -0.021217   0.377509  -0.021229  -0.001947   0.000005
    31  H   -0.001945  -0.021217   0.377509  -0.021230  -0.001947   0.000005
    32  H    0.000005  -0.001945  -0.021209   0.377532  -0.021237  -0.001921
    33  H    0.000005  -0.001945  -0.021209   0.377532  -0.021237  -0.001921
    34  H    0.000000   0.000004  -0.001942  -0.021337   0.378131  -0.021188
    35  H    0.000000   0.000004  -0.001942  -0.021337   0.378131  -0.021188
    36  H    0.000000   0.000000   0.000006  -0.001954  -0.019570   0.379494
    37  H    0.000000   0.000000   0.000006  -0.001954  -0.019570   0.379494
    38  H    0.000000   0.000000  -0.000013   0.001146  -0.018568   0.379545
              13         14         15         16         17         18
     1  C    0.379545   0.379494   0.379494  -0.021188  -0.021188  -0.001921
     2  C   -0.018568  -0.019570  -0.019570   0.378131   0.378131  -0.021237
     3  C    0.001146  -0.001954  -0.001954  -0.021337  -0.021337   0.377532
     4  C   -0.000013   0.000006   0.000006  -0.001942  -0.001942  -0.021209
     5  C    0.000000   0.000000   0.000000   0.000004   0.000004  -0.001945
     6  C    0.000000   0.000000   0.000000   0.000000   0.000000   0.000005
     7  C    0.000000   0.000000   0.000000   0.000000   0.000000   0.000000
     8  C    0.000000   0.000000   0.000000   0.000000   0.000000   0.000000
     9  C    0.000000   0.000000   0.000000   0.000000   0.000000   0.000000
    10  C    0.000000   0.000000   0.000000   0.000000   0.000000   0.000000
    11  C    0.000000   0.000000   0.000000   0.000000   0.000000   0.000000
    12  C    0.000000   0.000000   0.000000   0.000000   0.000000   0.000000
    13  H    0.612460  -0.020908  -0.020908  -0.002052  -0.002052   0.000006
    14  H   -0.020908   0.613507  -0.021156  -0.002171   0.001807  -0.000012
    15  H   -0.020908  -0.021156   0.613507   0.001807  -0.002171   0.000534
    16  H   -0.002052  -0.002171   0.001807   0.625069  -0.022909   0.001817
    17  H   -0.002052   0.001807  -0.002171  -0.022909   0.625069  -0.002204
    18  H    0.000006  -0.000012   0.000534   0.001817  -0.002204   0.626460
    19  H    0.000006   0.000534  -0.000012  -0.002204   0.001817  -0.022995
    20  H    0.000000   0.000002   0.000000   0.000541  -0.000002   0.001812
    21  H    0.000000   0.000000   0.000002  -0.000002   0.000541  -0.002193
    22  H    0.000000   0.000000   0.000000   0.000000   0.000002   0.000533
    23  H    0.000000   0.000000   0.000000   0.000002   0.000000  -0.000001
    24  H    0.000000   0.000000   0.000000   0.000000   0.000000   0.000000
    25  H    0.000000   0.000000   0.000000   0.000000   0.000000   0.000002
    26  H    0.000000   0.000000   0.000000   0.000000   0.000000   0.000000
    27  H    0.000000   0.000000   0.000000   0.000000   0.000000   0.000000
    28  H    0.000000   0.000000   0.000000   0.000000   0.000000   0.000000
    29  H    0.000000   0.000000   0.000000   0.000000   0.000000   0.000000
    30  H    0.000000   0.000000   0.000000   0.000000   0.000000   0.000000
    31  H    0.000000   0.000000   0.000000   0.000000   0.000000   0.000000
    32  H    0.000000   0.000000   0.000000   0.000000   0.000000   0.000000
    33  H    0.000000   0.000000   0.000000   0.000000   0.000000   0.000000
    34  H    0.000000   0.000000   0.000000   0.000000   0.000000   0.000000
    35  H    0.000000   0.000000   0.000000   0.000000   0.000000   0.000000
    36  H    0.000000   0.000000   0.000000   0.000000   0.000000   0.000000
    37  H    0.000000   0.000000   0.000000   0.000000   0.000000   0.000000
    38  H    0.000000   0.000000   0.000000   0.000000   0.000000   0.000000
              19         20         21         22         23         24
     1  C   -0.001921   0.000005   0.000005   0.000000   0.000000   0.000000
     2  C   -0.021237  -0.001947  -0.001947   0.000005   0.000005   0.000000
     3  C    0.377532  -0.021230  -0.021230  -0.001946  -0.001946   0.000005
     4  C   -0.021209   0.377509   0.377509  -0.021227  -0.021227  -0.001945
     5  C   -0.001945  -0.021217  -0.021217   0.377523   0.377523  -0.021227
     6  C    0.000005  -0.001945  -0.001945  -0.021225  -0.021225   0.377521
     7  C    0.000000   0.000005   0.000005  -0.001945  -0.001945  -0.021224
     8  C    0.000000   0.000000   0.000000   0.000005   0.000005  -0.001945
     9  C    0.000000   0.000000   0.000000   0.000000   0.000000   0.000005
    10  C    0.000000   0.000000   0.000000   0.000000   0.000000   0.000000
    11  C    0.000000   0.000000   0.000000   0.000000   0.000000   0.000000
    12  C    0.000000   0.000000   0.000000   0.000000   0.000000   0.000000
    13  H    0.000006   0.000000   0.000000   0.000000   0.000000   0.000000
    14  H    0.000534   0.000002   0.000000   0.000000   0.000000   0.000000
    15  H   -0.000012   0.000000   0.000002   0.000000   0.000000   0.000000
    16  H   -0.002204   0.000541  -0.000002   0.000000   0.000002   0.000000
    17  H    0.001817  -0.000002   0.000541   0.000002   0.000000   0.000000
    18  H   -0.022995   0.001812  -0.002193   0.000533  -0.000001   0.000000
    19  H    0.626460  -0.002193   0.001812  -0.000001   0.000533   0.000002
    20  H   -0.002193   0.626607  -0.023013   0.001812  -0.002195   0.000534
    21  H    0.001812  -0.023013   0.626607  -0.002195   0.001812  -0.000001
    22  H   -0.000001   0.001812  -0.002195   0.626568  -0.023008   0.001812
    23  H    0.000533  -0.002195   0.001812  -0.023008   0.626568  -0.002195
    24  H    0.000002   0.000534  -0.000001   0.001812  -0.002195   0.626586
    25  H    0.000000  -0.000001   0.000534  -0.002195   0.001812  -0.023010
    26  H    0.000000   0.000000   0.000002   0.000534  -0.000001   0.001812
    27  H    0.000000   0.000002   0.000000  -0.000001   0.000534  -0.002194
    28  H    0.000000   0.000000   0.000000   0.000000   0.000002   0.000534
    29  H    0.000000   0.000000   0.000000   0.000002   0.000000  -0.000001
    30  H    0.000000   0.000000   0.000000   0.000000   0.000000   0.000000
    31  H    0.000000   0.000000   0.000000   0.000000   0.000000   0.000002
    32  H    0.000000   0.000000   0.000000   0.000000   0.000000   0.000000
    33  H    0.000000   0.000000   0.000000   0.000000   0.000000   0.000000
    34  H    0.000000   0.000000   0.000000   0.000000   0.000000   0.000000
    35  H    0.000000   0.000000   0.000000   0.000000   0.000000   0.000000
    36  H    0.000000   0.000000   0.000000   0.000000   0.000000   0.000000
    37  H    0.000000   0.000000   0.000000   0.000000   0.000000   0.000000
    38  H    0.000000   0.000000   0.000000   0.000000   0.000000   0.000000
              25         26         27         28         29         30
     1  C    0.000000   0.000000   0.000000   0.000000   0.000000   0.000000
     2  C    0.000000   0.000000   0.000000   0.000000   0.000000   0.000000
     3  C    0.000005   0.000000   0.000000   0.000000   0.000000   0.000000
     4  C   -0.001945   0.000005   0.000005   0.000000   0.000000   0.000000
     5  C   -0.021227  -0.001945  -0.001945   0.000005   0.000005   0.000000
     6  C    0.377521  -0.021224  -0.021224  -0.001945  -0.001945   0.000005
     7  C   -0.021224   0.377521   0.377521  -0.021225  -0.021225  -0.001945
     8  C   -0.001945  -0.021227  -0.021227   0.377523   0.377523  -0.021217
     9  C    0.000005  -0.001945  -0.001945  -0.021227  -0.021227   0.377509
    10  C    0.000000   0.000005   0.000005  -0.001946  -0.001946  -0.021229
    11  C    0.000000   0.000000   0.000000   0.000005   0.000005  -0.001947
    12  C    0.000000   0.000000   0.000000   0.000000   0.000000   0.000005
    13  H    0.000000   0.000000   0.000000   0.000000   0.000000   0.000000
    14  H    0.000000   0.000000   0.000000   0.000000   0.000000   0.000000
    15  H    0.000000   0.000000   0.000000   0.000000   0.000000   0.000000
    16  H    0.000000   0.000000   0.000000   0.000000   0.000000   0.000000
    17  H    0.000000   0.000000   0.000000   0.000000   0.000000   0.000000
    18  H    0.000002   0.000000   0.000000   0.000000   0.000000   0.000000
    19  H    0.000000   0.000000   0.000000   0.000000   0.000000   0.000000
    20  H   -0.000001   0.000000   0.000002   0.000000   0.000000   0.000000
    21  H    0.000534   0.000002   0.000000   0.000000   0.000000   0.000000
    22  H   -0.002195   0.000534  -0.000001   0.000000   0.000002   0.000000
    23  H    0.001812  -0.000001   0.000534   0.000002   0.000000   0.000000
    24  H   -0.023010   0.001812  -0.002194   0.000534  -0.000001   0.000000
    25  H    0.626586  -0.002194   0.001812  -0.000001   0.000534   0.000002
    26  H   -0.002194   0.626586  -0.023010   0.001812  -0.002195   0.000534
    27  H    0.001812  -0.023010   0.626586  -0.002195   0.001812  -0.000001
    28  H   -0.000001   0.001812  -0.002195   0.626569  -0.023008   0.001812
    29  H    0.000534  -0.002195   0.001812  -0.023008   0.626569  -0.002195
    30  H    0.000002   0.000534  -0.000001   0.001812  -0.002195   0.626607
    31  H    0.000000  -0.000001   0.000534  -0.002195   0.001812  -0.023013
    32  H    0.000000   0.000000   0.000002   0.000533  -0.000001   0.001812
    33  H    0.000000   0.000002   0.000000  -0.000001   0.000533  -0.002193
    34  H    0.000000   0.000000   0.000000   0.000000   0.000002   0.000541
    35  H    0.000000   0.000000   0.000000   0.000002   0.000000  -0.000002
    36  H    0.000000   0.000000   0.000000   0.000000   0.000000   0.000000
    37  H    0.000000   0.000000   0.000000   0.000000   0.000000   0.000002
    38  H    0.000000   0.000000   0.000000   0.000000   0.000000   0.000000
              31         32         33         34         35         36
     1  C    0.000000   0.000000   0.000000   0.000000   0.000000   0.000000
     2  C    0.000000   0.000000   0.000000   0.000000   0.000000   0.000000
     3  C    0.000000   0.000000   0.000000   0.000000   0.000000   0.000000
     4  C    0.000000   0.000000   0.000000   0.000000   0.000000   0.000000
     5  C    0.000000   0.000000   0.000000   0.000000   0.000000   0.000000
     6  C    0.000005   0.000000   0.000000   0.000000   0.000000   0.000000
     7  C   -0.001945   0.000005   0.000005   0.000000   0.000000   0.000000
     8  C   -0.021217  -0.001945  -0.001945   0.000004   0.000004   0.000000
     9  C    0.377509  -0.021209  -0.021209  -0.001942  -0.001942   0.000006
    10  C   -0.021230   0.377532   0.377532  -0.021337  -0.021337  -0.001954
    11  C   -0.001947  -0.021237  -0.021237   0.378131   0.378131  -0.019570
    12  C    0.000005  -0.001921  -0.001921  -0.021188  -0.021188   0.379494
    13  H    0.000000   0.000000   0.000000   0.000000   0.000000   0.000000
    14  H    0.000000   0.000000   0.000000   0.000000   0.000000   0.000000
    15  H    0.000000   0.000000   0.000000   0.000000   0.000000   0.000000
    16  H    0.000000   0.000000   0.000000   0.000000   0.000000   0.000000
    17  H    0.000000   0.000000   0.000000   0.000000   0.000000   0.000000
    18  H    0.000000   0.000000   0.000000   0.000000   0.000000   0.000000
    19  H    0.000000   0.000000   0.000000   0.000000   0.000000   0.000000
    20  H    0.000000   0.000000   0.000000   0.000000   0.000000   0.000000
    21  H    0.000000   0.000000   0.000000   0.000000   0.000000   0.000000
    22  H    0.000000   0.000000   0.000000   0.000000   0.000000   0.000000
    23  H    0.000000   0.000000   0.000000   0.000000   0.000000   0.000000
    24  H    0.000002   0.000000   0.000000   0.000000   0.000000   0.000000
    25  H    0.000000   0.000000   0.000000   0.000000   0.000000   0.000000
    26  H   -0.000001   0.000000   0.000002   0.000000   0.000000   0.000000
    27  H    0.000534   0.000002   0.000000   0.000000   0.000000   0.000000
    28  H   -0.002195   0.000533  -0.000001   0.000000   0.000002   0.000000
    29  H    0.001812  -0.000001   0.000533   0.000002   0.000000   0.000000
    30  H   -0.023013   0.001812  -0.002193   0.000541  -0.000002   0.000000
    31  H    0.626607  -0.002193   0.001812  -0.000002   0.000541   0.000002
    32  H   -0.002193   0.626460  -0.022995   0.001817  -0.002204   0.000534
    33  H    0.001812  -0.022995   0.626460  -0.002204   0.001817  -0.000012
    34  H   -0.000002   0.001817  -0.002204   0.625069  -0.022909   0.001807
    35  H    0.000541  -0.002204   0.001817  -0.022909   0.625069  -0.002171
    36  H    0.000002   0.000534  -0.000012   0.001807  -0.002171   0.613507
    37  H    0.000000  -0.000012   0.000534  -0.002171   0.001807  -0.021156
    38  H    0.000000   0.000006   0.000006  -0.002052  -0.002052  -0.020908
              37         38
     1  C    0.000000   0.000000
     2  C    0.000000   0.000000
     3  C    0.000000   0.000000
     4  C    0.000000   0.000000
     5  C    0.000000   0.000000
     6  C    0.000000   0.000000
     7  C    0.000000   0.000000
     8  C    0.000000   0.000000
     9  C    0.000006  -0.000013
    10  C   -0.001954   0.001146
    11  C   -0.019570  -0.018568
    12  C    0.379494   0.379545
    13  H    0.000000   0.000000
    14  H    0.000000   0.000000
    15  H    0.000000   0.000000
    16  H    0.000000   0.000000
    17  H    0.000000   0.000000
    18  H    0.000000   0.000000
    19  H    0.000000   0.000000
    20  H    0.000000   0.000000
    21  H    0.000000   0.000000
    22  H    0.000000   0.000000
    23  H    0.000000   0.000000
    24  H    0.000000   0.000000
    25  H    0.000000   0.000000
    26  H    0.000000   0.000000
    27  H    0.000000   0.000000
    28  H    0.000000   0.000000
    29  H    0.000000   0.000000
    30  H    0.000002   0.000000
    31  H    0.000000   0.000000
    32  H   -0.000012   0.000006
    33  H    0.000534   0.000006
    34  H   -0.002171  -0.002052
    35  H    0.001807  -0.002052
    36  H   -0.021156  -0.020908
    37  H    0.613507  -0.020908
    38  H   -0.020908   0.612460
 Mulliken charges:
               1
     1  C   -0.218025
     2  C   -0.127654
     3  C   -0.129461
     4  C   -0.129925
     5  C   -0.129802
     6  C   -0.129813
     7  C   -0.129813
     8  C   -0.129802
     9  C   -0.129925
    10  C   -0.129461
    11  C   -0.127654
    12  C   -0.218025
    13  H    0.071338
    14  H    0.070422
    15  H    0.070422
    16  H    0.066434
    17  H    0.066434
    18  H    0.065017
    19  H    0.065017
    20  H    0.064916
    21  H    0.064916
    22  H    0.064950
    23  H    0.064950
    24  H    0.064933
    25  H    0.064933
    26  H    0.064933
    27  H    0.064933
    28  H    0.064950
    29  H    0.064950
    30  H    0.064916
    31  H    0.064916
    32  H    0.065017
    33  H    0.065017
    34  H    0.066434
    35  H    0.066434
    36  H    0.070422
    37  H    0.070422
    38  H    0.071338
 Sum of Mulliken charges =   0.00000
 Mulliken charges with hydrogens summed into heavy atoms:
               1
     1  C   -0.005844
     2  C    0.005215
     3  C    0.000572
     4  C   -0.000093
     5  C    0.000097
     6  C    0.000053
     7  C    0.000053
     8  C    0.000097
     9  C   -0.000094
    10  C    0.000572
    11  C    0.005215
    12  C   -0.005843
 Electronic spatial extent (au):  <R**2>=           7718.4576
 Charge=              0.0000 electrons
 Dipole moment (field-independent basis, Debye):
    X=              0.0000    Y=              0.0000    Z=              0.0000  Tot=              0.0000
 Quadrupole moment (field-independent basis, Debye-Ang):
   XX=            -77.2501   YY=            -75.9220   ZZ=            -74.7209
   XY=              0.2685   XZ=              0.0000   YZ=              0.0000
 Traceless Quadrupole moment (field-independent basis, Debye-Ang):
   XX=             -1.2858   YY=              0.0423   ZZ=              1.2435
   XY=              0.2685   XZ=              0.0000   YZ=              0.0000
 Octapole moment (field-independent basis, Debye-Ang**2):
  XXX=              0.0001  YYY=              0.0000  ZZZ=              0.0000  XYY=             -0.0001
  XXY=              0.0000  XXZ=              0.0000  XZZ=              0.0000  YZZ=              0.0000
  YYZ=              0.0000  XYZ=              0.0000
 Hexadecapole moment (field-independent basis, Debye-Ang**3):
 XXXX=          -9736.8067 YYYY=           -256.7910 ZZZZ=           -143.4076 XXXY=             42.8837
 XXXZ=              0.0000 YYYX=              0.4070 YYYZ=              0.0000 ZZZX=              0.0000
 ZZZY=              0.0000 XXYY=          -1642.9635 XXZZ=          -1608.1383 YYZZ=            -57.6101
 XXYZ=              0.0000 YYXZ=              0.0000 ZZXY=             -4.7418
 N-N= 6.618134712023D+02 E-N=-2.401782095342D+03  KE= 4.589283965174D+02
 1\1\GINC-PC-AVL46\FOpt\RB3LYP\STO-3G\C12H26\BING\28-Jan-2019\0\\# opt(
 tight) b3lyp/sto-3g\\c12h26\\0,1\C,0.0643420602,-1.1471841168,-2.52266
 7429\C,0.4890532015,-2.5185240944,-1.9225860933\C,1.7665888844,-2.4073
 095802,-1.03278357\C,2.1922240312,-3.7830789947,-0.4310847604\C,3.4697
 680648,-3.6714885211,0.4586415482\C,3.8954570994,-5.0473569712,1.06039
 85851\C,5.1730327392,-4.9356981283,1.9501289128\C,5.5987145477,-6.3115
 716131,2.5518796992\C,6.8762609968,-6.2000024341,3.4416051163\C,7.3018
 76769,-7.5757859905,4.0432856846\C,8.5794147077,-7.4646086902,4.933089
 5325\C,9.0040978361,-8.8359685589,5.533145792\H,-0.837737946,-1.258557
 398,-3.1438659782\H,0.8674392844,-0.7323739901,-3.1509848416\H,-0.1544
 739674,-0.4237098601,-1.7223425455\H,0.6780630035,-3.2337831761,-2.742
 1455397\H,-0.340307101,-2.9261911663,-1.3184613845\H,1.5781512286,-1.6
 926250991,-0.2125662521\H,2.5966352832,-2.0002506774,-1.6364099833\H,2
 .3803305642,-4.4975063944,-1.2516144047\H,1.3618283731,-4.1898757813,0
 .1722550234\H,3.2816275279,-2.9570527361,1.2791463703\H,4.3001304085,-
 3.2646834745,-0.1447249923\H,4.0835989118,-5.7617897995,0.2398912084\H
 ,3.065094351,-5.4541581725,1.663767987\H,4.9848926758,-4.2212665602,2.
 7706378969\H,6.0033966361,-4.5288981098,1.3467605241\H,5.7868486892,-7
 .02600377,1.7313704285\H,4.7683489694,-6.7183736937,3.1552440747\H,6.6
 881635176,-5.4855816715,4.2621425867\H,7.7066617027,-5.7932097103,2.83
 82695983\H,7.4903037229,-8.2904614964,3.2230582569\H,6.4718230346,-7.9
 828403689,4.6469052914\H,8.3904168666,-6.7493610538,5.7526614897\H,9.4
 087835523,-7.0569461167,4.3289732896\H,9.2229012479,-9.5594313655,4.73
 28071107\H,8.2009902313,-9.2507746016,6.1614525849\H,9.9061782938,-8.7
 246260625,6.1543491824\\Version=ES64L-G09RevD.01\State=1-A\HF=-467.367
 5654\RMSD=2.995e-09\RMSF=7.393e-07\Dipole=-0.0000008,-0.0000018,-0.000
 0005\Quadrupole=0.0390104,-0.3601167,0.3211063,0.2923286,-0.6965409,0.
 4866439\PG=C01 [X(C12H26)]\\@


 GOORD'S AXIOM:  A MEETING IS AN EVENT AT WHICH
 THE MINUTES ARE KEPT AND THE HOURS ARE LOST.
 Job cpu time:       0 days  0 hours  3 minutes 10.8 seconds.
 File lengths (MBytes):  RWF=      8 Int=      0 D2E=      0 Chk=      3 Scr=      1
 Normal termination of Gaussian 09 at Mon Jan 28 19:29:53 2019.
