 Entering Gaussian System, Link 0=g09
 Input=c12h14.com
 Output=c12h14.out
 Initial command:
 /apps/g09_d.01/g09/l1.exe "/data/scratch/Gau-51408.inp" -scrdir="/data/scratch/"
 Entering Link 1 = /apps/g09_d.01/g09/l1.exe PID=     51413.
  
 Copyright (c) 1988,1990,1992,1993,1995,1998,2003,2009,2013,
            Gaussian, Inc.  All Rights Reserved.
  
 This is part of the Gaussian(R) 09 program.  It is based on
 the Gaussian(R) 03 system (copyright 2003, Gaussian, Inc.),
 the Gaussian(R) 98 system (copyright 1998, Gaussian, Inc.),
 the Gaussian(R) 94 system (copyright 1995, Gaussian, Inc.),
 the Gaussian 92(TM) system (copyright 1992, Gaussian, Inc.),
 the Gaussian 90(TM) system (copyright 1990, Gaussian, Inc.),
 the Gaussian 88(TM) system (copyright 1988, Gaussian, Inc.),
 the Gaussian 86(TM) system (copyright 1986, Carnegie Mellon
 University), and the Gaussian 82(TM) system (copyright 1983,
 Carnegie Mellon University). Gaussian is a federally registered
 trademark of Gaussian, Inc.
  
 This software contains proprietary and confidential information,
 including trade secrets, belonging to Gaussian, Inc.
  
 This software is provided under written license and may be
 used, copied, transmitted, or stored only in accord with that
 written license.
  
 The following legend is applicable only to US Government
 contracts under FAR:
  
                    RESTRICTED RIGHTS LEGEND
  
 Use, reproduction and disclosure by the US Government is
 subject to restrictions as set forth in subparagraphs (a)
 and (c) of the Commercial Computer Software - Restricted
 Rights clause in FAR 52.227-19.
  
 Gaussian, Inc.
 340 Quinnipiac St., Bldg. 40, Wallingford CT 06492
  
  
 ---------------------------------------------------------------
 Warning -- This program may not be used in any manner that
 competes with the business of Gaussian, Inc. or will provide
 assistance to any competitor of Gaussian, Inc.  The licensee
 of this program is prohibited from giving any competitor of
 Gaussian, Inc. access to this program.  By using this program,
 the user acknowledges that Gaussian, Inc. is engaged in the
 business of creating and licensing software in the field of
 computational chemistry and represents and warrants to the
 licensee that it is not a competitor of Gaussian, Inc. and that
 it will not use this program in any manner prohibited above.
 ---------------------------------------------------------------
  

 Cite this work as:
 Gaussian 09, Revision D.01,
 M. J. Frisch, G. W. Trucks, H. B. Schlegel, G. E. Scuseria, 
 M. A. Robb, J. R. Cheeseman, G. Scalmani, V. Barone, B. Mennucci, 
 G. A. Petersson, H. Nakatsuji, M. Caricato, X. Li, H. P. Hratchian, 
 A. F. Izmaylov, J. Bloino, G. Zheng, J. L. Sonnenberg, M. Hada, 
 M. Ehara, K. Toyota, R. Fukuda, J. Hasegawa, M. Ishida, T. Nakajima, 
 Y. Honda, O. Kitao, H. Nakai, T. Vreven, J. A. Montgomery, Jr., 
 J. E. Peralta, F. Ogliaro, M. Bearpark, J. J. Heyd, E. Brothers, 
 K. N. Kudin, V. N. Staroverov, T. Keith, R. Kobayashi, J. Normand, 
 K. Raghavachari, A. Rendell, J. C. Burant, S. S. Iyengar, J. Tomasi, 
 M. Cossi, N. Rega, J. M. Millam, M. Klene, J. E. Knox, J. B. Cross, 
 V. Bakken, C. Adamo, J. Jaramillo, R. Gomperts, R. E. Stratmann, 
 O. Yazyev, A. J. Austin, R. Cammi, C. Pomelli, J. W. Ochterski, 
 R. L. Martin, K. Morokuma, V. G. Zakrzewski, G. A. Voth, 
 P. Salvador, J. J. Dannenberg, S. Dapprich, A. D. Daniels, 
 O. Farkas, J. B. Foresman, J. V. Ortiz, J. Cioslowski, 
 and D. J. Fox, Gaussian, Inc., Wallingford CT, 2013.
 
 ******************************************
 Gaussian 09:  ES64L-G09RevD.01 24-Apr-2013
                28-Jan-2019 
 ******************************************
 %nproc=6
 Will use up to    6 processors via shared memory.
 -------------------------
 # opt(tight) b3lyp/sto-3g
 -------------------------
 1/7=10,14=-1,18=20,19=15,26=3,38=1/1,3;
 2/9=110,12=2,17=6,18=5,40=1/2;
 3/6=3,11=2,16=1,25=1,30=1,71=1,74=-5/1,2,3;
 4//1;
 5/5=2,38=5/2;
 6/7=2,8=2,9=2,10=2,28=1/1;
 7//1,2,3,16;
 1/7=10,14=-1,18=20,19=15,26=3/3(2);
 2/9=110/2;
 99//99;
 2/9=110/2;
 3/6=3,11=2,16=1,25=1,30=1,71=1,74=-5/1,2,3;
 4/5=5,16=3,69=1/1;
 5/5=2,38=5/2;
 7//1,2,3,16;
 1/7=10,14=-1,18=20,19=15,26=3/3(-5);
 2/9=110/2;
 6/7=2,8=2,9=2,10=2,19=2,28=1/1;
 99/9=1/99;
 ------
 c12h14
 ------
 Symbolic Z-matrix:
 Charge =  0 Multiplicity = 1
 C                     1.21513  -0.22555  -0.33543 
 C                     1.7802    0.59526  -1.22375 
 C                     3.2461    0.76981  -1.27837 
 C                     3.8088    1.59452  -2.17143 
 C                     5.27513   1.76954  -2.22656 
 C                     5.83781   2.59427  -3.11967 
 C                     7.30414   2.76929  -3.17482 
 C                     7.8668    3.59401  -4.06796 
 C                     9.33314   3.76904  -4.12314 
 C                     9.89579   4.59372  -5.01626 
 C                     11.36168   4.76829  -5.07097 
 C                     11.92669   5.58906  -5.95937 
 H                     1.81655  -0.78841   0.37239 
 H                     0.13614  -0.33931  -0.31216 
 H                     1.1433    1.14068  -1.91504 
 H                     3.87311   0.21847  -0.58125 
 H                     3.181     2.14545  -2.86816 
 H                     5.90279   1.21855  -1.52977 
 H                     5.21014   3.14525  -3.81646 
 H                     7.93182   2.21832  -2.47804 
 H                     7.23913   4.14497  -4.76475 
 H                     9.96097   3.21815  -3.42641 
 H                     9.26874   5.14501  -5.71338 
 H                     11.99862   4.22292  -4.37968 
 H                     13.00568   5.70284  -5.9827 
 H                     11.32521   6.15186  -6.66718 
 

 GradGradGradGradGradGradGradGradGradGradGradGradGradGradGradGradGradGrad
 Berny optimization.
 Initialization pass.
                           ----------------------------
                           !    Initial Parameters    !
                           ! (Angstroms and Degrees)  !
 --------------------------                            --------------------------
 ! Name  Definition              Value          Derivative Info.                !
 --------------------------------------------------------------------------------
 ! R1    R(1,2)                  1.335          estimate D2E/DX2                !
 ! R2    R(1,13)                 1.0861         estimate D2E/DX2                !
 ! R3    R(1,14)                 1.0852         estimate D2E/DX2                !
 ! R4    R(2,3)                  1.4773         estimate D2E/DX2                !
 ! R5    R(2,15)                 1.0867         estimate D2E/DX2                !
 ! R6    R(3,4)                  1.3395         estimate D2E/DX2                !
 ! R7    R(3,16)                 1.0877         estimate D2E/DX2                !
 ! R8    R(4,5)                  1.4778         estimate D2E/DX2                !
 ! R9    R(4,17)                 1.0877         estimate D2E/DX2                !
 ! R10   R(5,6)                  1.3396         estimate D2E/DX2                !
 ! R11   R(5,18)                 1.0877         estimate D2E/DX2                !
 ! R12   R(6,7)                  1.4778         estimate D2E/DX2                !
 ! R13   R(6,19)                 1.0877         estimate D2E/DX2                !
 ! R14   R(7,8)                  1.3396         estimate D2E/DX2                !
 ! R15   R(7,20)                 1.0877         estimate D2E/DX2                !
 ! R16   R(8,9)                  1.4778         estimate D2E/DX2                !
 ! R17   R(8,21)                 1.0877         estimate D2E/DX2                !
 ! R18   R(9,10)                 1.3395         estimate D2E/DX2                !
 ! R19   R(9,22)                 1.0877         estimate D2E/DX2                !
 ! R20   R(10,11)                1.4773         estimate D2E/DX2                !
 ! R21   R(10,23)                1.0877         estimate D2E/DX2                !
 ! R22   R(11,12)                1.335          estimate D2E/DX2                !
 ! R23   R(11,24)                1.0867         estimate D2E/DX2                !
 ! R24   R(12,25)                1.0852         estimate D2E/DX2                !
 ! R25   R(12,26)                1.0861         estimate D2E/DX2                !
 ! A1    A(2,1,13)             121.1936         estimate D2E/DX2                !
 ! A2    A(2,1,14)             119.9718         estimate D2E/DX2                !
 ! A3    A(13,1,14)            118.8345         estimate D2E/DX2                !
 ! A4    A(1,2,3)              121.1499         estimate D2E/DX2                !
 ! A5    A(1,2,15)             118.9338         estimate D2E/DX2                !
 ! A6    A(3,2,15)             119.9163         estimate D2E/DX2                !
 ! A7    A(2,3,4)              120.9465         estimate D2E/DX2                !
 ! A8    A(2,3,16)             119.2374         estimate D2E/DX2                !
 ! A9    A(4,3,16)             119.816          estimate D2E/DX2                !
 ! A10   A(3,4,5)              120.9715         estimate D2E/DX2                !
 ! A11   A(3,4,17)             119.7648         estimate D2E/DX2                !
 ! A12   A(5,4,17)             119.2637         estimate D2E/DX2                !
 ! A13   A(4,5,6)              120.9698         estimate D2E/DX2                !
 ! A14   A(4,5,18)             119.2551         estimate D2E/DX2                !
 ! A15   A(6,5,18)             119.7752         estimate D2E/DX2                !
 ! A16   A(5,6,7)              120.9704         estimate D2E/DX2                !
 ! A17   A(5,6,19)             119.7745         estimate D2E/DX2                !
 ! A18   A(7,6,19)             119.2551         estimate D2E/DX2                !
 ! A19   A(6,7,8)              120.9692         estimate D2E/DX2                !
 ! A20   A(6,7,20)             119.256          estimate D2E/DX2                !
 ! A21   A(8,7,20)             119.7748         estimate D2E/DX2                !
 ! A22   A(7,8,9)              120.9703         estimate D2E/DX2                !
 ! A23   A(7,8,21)             119.7752         estimate D2E/DX2                !
 ! A24   A(9,8,21)             119.2545         estimate D2E/DX2                !
 ! A25   A(8,9,10)             120.9706         estimate D2E/DX2                !
 ! A26   A(8,9,22)             119.2642         estimate D2E/DX2                !
 ! A27   A(10,9,22)            119.7652         estimate D2E/DX2                !
 ! A28   A(9,10,11)            120.9472         estimate D2E/DX2                !
 ! A29   A(9,10,23)            119.8157         estimate D2E/DX2                !
 ! A30   A(11,10,23)           119.2371         estimate D2E/DX2                !
 ! A31   A(10,11,12)           121.1499         estimate D2E/DX2                !
 ! A32   A(10,11,24)           119.9159         estimate D2E/DX2                !
 ! A33   A(12,11,24)           118.9342         estimate D2E/DX2                !
 ! A34   A(11,12,25)           119.9718         estimate D2E/DX2                !
 ! A35   A(11,12,26)           121.1927         estimate D2E/DX2                !
 ! A36   A(25,12,26)           118.8356         estimate D2E/DX2                !
 ! D1    D(13,1,2,3)            -0.0006         estimate D2E/DX2                !
 ! D2    D(13,1,2,15)          179.9999         estimate D2E/DX2                !
 ! D3    D(14,1,2,3)           179.9997         estimate D2E/DX2                !
 ! D4    D(14,1,2,15)            0.0002         estimate D2E/DX2                !
 ! D5    D(1,2,3,4)            179.9995         estimate D2E/DX2                !
 ! D6    D(1,2,3,16)             0.0003         estimate D2E/DX2                !
 ! D7    D(15,2,3,4)            -0.001          estimate D2E/DX2                !
 ! D8    D(15,2,3,16)          179.9999         estimate D2E/DX2                !
 ! D9    D(2,3,4,5)           -179.9996         estimate D2E/DX2                !
 ! D10   D(2,3,4,17)             0.0007         estimate D2E/DX2                !
 ! D11   D(16,3,4,5)            -0.0005         estimate D2E/DX2                !
 ! D12   D(16,3,4,17)          179.9999         estimate D2E/DX2                !
 ! D13   D(3,4,5,6)            179.9992         estimate D2E/DX2                !
 ! D14   D(3,4,5,18)             0.0002         estimate D2E/DX2                !
 ! D15   D(17,4,5,6)            -0.0012         estimate D2E/DX2                !
 ! D16   D(17,4,5,18)          179.9998         estimate D2E/DX2                !
 ! D17   D(4,5,6,7)           -179.9994         estimate D2E/DX2                !
 ! D18   D(4,5,6,19)             0.0006         estimate D2E/DX2                !
 ! D19   D(18,5,6,7)            -0.0004         estimate D2E/DX2                !
 ! D20   D(18,5,6,19)          179.9996         estimate D2E/DX2                !
 ! D21   D(5,6,7,8)            179.9987         estimate D2E/DX2                !
 ! D22   D(5,6,7,20)             0.0            estimate D2E/DX2                !
 ! D23   D(19,6,7,8)            -0.0013         estimate D2E/DX2                !
 ! D24   D(19,6,7,20)          180.0            estimate D2E/DX2                !
 ! D25   D(6,7,8,9)           -179.9994         estimate D2E/DX2                !
 ! D26   D(6,7,8,21)             0.0004         estimate D2E/DX2                !
 ! D27   D(20,7,8,9)            -0.0007         estimate D2E/DX2                !
 ! D28   D(20,7,8,21)          179.9991         estimate D2E/DX2                !
 ! D29   D(7,8,9,10)           179.9992         estimate D2E/DX2                !
 ! D30   D(7,8,9,22)            -0.0004         estimate D2E/DX2                !
 ! D31   D(21,8,9,10)           -0.0006         estimate D2E/DX2                !
 ! D32   D(21,8,9,22)          179.9998         estimate D2E/DX2                !
 ! D33   D(8,9,10,11)         -179.9996         estimate D2E/DX2                !
 ! D34   D(8,9,10,23)            0.0001         estimate D2E/DX2                !
 ! D35   D(22,9,10,11)           0.0            estimate D2E/DX2                !
 ! D36   D(22,9,10,23)         179.9997         estimate D2E/DX2                !
 ! D37   D(9,10,11,12)         179.9995         estimate D2E/DX2                !
 ! D38   D(9,10,11,24)          -0.0002         estimate D2E/DX2                !
 ! D39   D(23,10,11,12)         -0.0002         estimate D2E/DX2                !
 ! D40   D(23,10,11,24)       -179.9999         estimate D2E/DX2                !
 ! D41   D(10,11,12,25)        179.9999         estimate D2E/DX2                !
 ! D42   D(10,11,12,26)          0.0006         estimate D2E/DX2                !
 ! D43   D(24,11,12,25)         -0.0004         estimate D2E/DX2                !
 ! D44   D(24,11,12,26)       -179.9998         estimate D2E/DX2                !
 --------------------------------------------------------------------------------
 Trust Radius=3.00D-01 FncErr=1.00D-07 GrdErr=1.00D-06
 Number of steps in this run=    115 maximum allowed number of steps=    156.
 GradGradGradGradGradGradGradGradGradGradGradGradGradGradGradGradGradGrad

                          Input orientation:                          
 ---------------------------------------------------------------------
 Center     Atomic      Atomic             Coordinates (Angstroms)
 Number     Number       Type             X           Y           Z
 ---------------------------------------------------------------------
      1          6           0        1.215130   -0.225550   -0.335430
      2          6           0        1.780200    0.595260   -1.223750
      3          6           0        3.246100    0.769810   -1.278370
      4          6           0        3.808800    1.594520   -2.171430
      5          6           0        5.275130    1.769540   -2.226560
      6          6           0        5.837810    2.594270   -3.119670
      7          6           0        7.304140    2.769290   -3.174820
      8          6           0        7.866800    3.594010   -4.067960
      9          6           0        9.333140    3.769040   -4.123140
     10          6           0        9.895790    4.593720   -5.016260
     11          6           0       11.361680    4.768290   -5.070970
     12          6           0       11.926690    5.589060   -5.959370
     13          1           0        1.816550   -0.788410    0.372390
     14          1           0        0.136140   -0.339310   -0.312160
     15          1           0        1.143300    1.140680   -1.915040
     16          1           0        3.873110    0.218470   -0.581250
     17          1           0        3.181000    2.145450   -2.868160
     18          1           0        5.902790    1.218550   -1.529770
     19          1           0        5.210140    3.145250   -3.816460
     20          1           0        7.931820    2.218320   -2.478040
     21          1           0        7.239130    4.144970   -4.764750
     22          1           0        9.960970    3.218150   -3.426410
     23          1           0        9.268740    5.145010   -5.713380
     24          1           0       11.998620    4.222920   -4.379680
     25          1           0       13.005680    5.702840   -5.982700
     26          1           0       11.325210    6.151860   -6.667180
 ---------------------------------------------------------------------
                    Distance matrix (angstroms):
                    1          2          3          4          5
     1  C    0.000000
     2  C    1.334970   0.000000
     3  C    2.450452   1.477266   0.000000
     4  C    3.662059   2.451905   1.339528   0.000000
     5  C    4.903097   3.820876   2.452649   1.477767   0.000000
     6  C    6.088723   4.904564   3.665515   2.452660   1.339565
     7  C    7.355763   6.248759   4.905317   3.821554   2.452668
     8  C    8.530272   7.357223   6.091698   4.905319   3.665542
     9  C    9.808444   8.690584   7.357999   6.249483   4.905350
    10  C   10.976766   9.809873   8.533023   7.357969   6.091709
    11  C   12.260353  11.136429   9.809908   8.690578   7.357259
    12  C   13.422962  12.260318  10.976774   9.808414   8.530290
    13  H    1.086060   2.112706   2.682661   4.014777   5.025876
    14  H    1.085220   2.099369   3.440285   4.548078   5.875491
    15  H    2.089716   1.086741   2.228152   2.715989   4.191006
    16  H    2.706001   2.221497   1.087701   2.103883   2.660549
    17  H    3.987607   2.658837   2.103344   1.087699   2.222237
    18  H    5.048369   4.180656   2.706025   2.222133   1.087687
    19  H    6.280125   4.998908   3.992752   2.659820   2.103469
    20  H    7.461716   6.484597   5.049095   4.181200   2.706039
    21  H    8.660768   7.412087   6.284174   4.999727   3.992790
    22  H    9.894592   8.868836   7.463104   6.485395   5.049278
    23  H   11.073658   9.845569   8.665096   7.413659   6.284953
    24  H   12.346194  11.293180   9.907003   8.880203   7.473976
    25  H   14.354600  13.219167  11.904407  10.769711   9.452028
    26  H   13.526867  12.313162  11.103052   9.873071   8.690645
                    6          7          8          9         10
     6  C    0.000000
     7  C    1.477768   0.000000
     8  C    2.452659   1.339570   0.000000
     9  C    3.821566   2.452683   1.477780   0.000000
    10  C    4.905309   3.665528   2.452650   1.339528   0.000000
    11  C    6.248766   4.904591   3.820883   2.451909   1.477261
    12  C    7.355754   6.088743   4.903097   3.662064   2.450452
    13  H    6.309322   7.439998   8.690675   9.873159  11.103107
    14  H    6.999789   8.320964   9.451992  10.769722  11.904374
    15  H    5.059889   6.495796   7.473911   8.880172   9.906923
    16  H    3.993501   5.000525   6.284980   7.413735   8.665149
    17  H    2.706166   4.181328   5.049215   6.485356   7.463026
    18  H    2.103476   2.659843   3.992813   4.999787   6.284221
    19  H    1.087688   2.222135   2.706008   4.181184   5.049050
    20  H    2.222140   1.087682   2.103472   2.659847   3.992776
    21  H    2.659823   2.103473   1.087678   2.222131   2.706007
    22  H    4.181359   2.706200   2.222252   1.087696   2.103346
    23  H    5.000489   3.993493   2.660534   2.103878   1.087699
    24  H    6.495822   5.059928   4.191018   2.715990   2.228143
    25  H    8.320968   6.999819   5.875498   4.548087   3.440286
    26  H    7.439948   6.309308   5.025847   4.014762   2.682644
                   11         12         13         14         15
    11  C    0.000000
    12  C    1.334974   0.000000
    13  H   12.313269  13.526945   0.000000
    14  H   13.219175  14.354568   1.869245   0.000000
    15  H   11.293128  12.346100   3.067082   2.402908   0.000000
    16  H    9.845665  11.073733   2.480459   3.787938   3.175111
    17  H    8.868776   9.894500   4.579347   4.688106   2.463782
    18  H    7.412168   8.660836   4.933909   6.096208   4.775693
    19  H    6.484558   7.461656   6.673575   7.082920   4.916593
    20  H    4.998957   6.280170   7.386603   8.485584   6.896541
    21  H    4.180636   5.048339   8.951694   9.507197   7.369243
    22  H    2.658853   3.987625   9.839460  10.903273   9.184303
    23  H    2.221487   2.705991  11.303858  11.943841   9.822669
    24  H    1.086740   2.089721  12.303258  13.344553  11.550438
    25  H    2.099374   1.085223  14.412499  15.306458  13.344483
    26  H    2.112696   1.086056  13.716323  14.412385  12.303091
                   16         17         18         19         20
    16  H    0.000000
    17  H    3.069564   0.000000
    18  H    2.453457   3.171525   0.000000
    19  H    4.562924   2.452811   3.069347   0.000000
    20  H    4.906153   4.767368   2.452696   3.171452   0.000000
    21  H    6.652005   4.905462   4.562328   2.452650   3.069339
    22  H    7.359012   6.886968   4.905555   4.767372   2.452859
    23  H    8.928739   7.358887   6.652015   4.906076   4.562926
    24  H    9.822810   9.184280   7.369353   6.896524   4.916657
    25  H   11.943945  10.903198   9.507286   8.485535   7.082978
    26  H   11.303869   9.839310   8.951713   7.386500   6.673584
                   21         22         23         24         25
    21  H    0.000000
    22  H    3.171524   0.000000
    23  H    2.453425   3.069561   0.000000
    24  H    4.775678   2.463799   3.175098   0.000000
    25  H    6.096184   4.688130   3.787932   2.402916   0.000000
    26  H    4.933852   4.579344   2.480433   3.067075   1.869254
                   26
    26  H    0.000000
 Stoichiometry    C12H14
 Framework group  C1[X(C12H14)]
 Deg. of freedom    72
 Full point group                 C1      NOp   1
 Largest Abelian subgroup         C1      NOp   1
 Largest concise Abelian subgroup C1      NOp   1
                         Standard orientation:                         
 ---------------------------------------------------------------------
 Center     Atomic      Atomic             Coordinates (Angstroms)
 Number     Number       Type             X           Y           Z
 ---------------------------------------------------------------------
      1          6           0       -6.706685    0.253752    0.000065
      2          6           0       -5.552556   -0.417167    0.000028
      3          6           0       -4.256528    0.291793    0.000005
      4          6           0       -3.100856   -0.385523   -0.000022
      5          6           0       -1.804079    0.323112   -0.000038
      6          6           0       -0.648395   -0.354257   -0.000049
      7          6           0        0.648390    0.354365   -0.000051
      8          6           0        1.804065   -0.323030   -0.000036
      9          6           0        3.100874    0.385574   -0.000026
     10          6           0        4.256516   -0.291794    0.000006
     11          6           0        5.552580    0.417092    0.000025
     12          6           0        6.706675   -0.253892    0.000068
     13          1           0       -6.726080    1.339639    0.000087
     14          1           0       -7.647856   -0.286524    0.000077
     15          1           0       -5.576008   -1.503655    0.000008
     16          1           0       -4.245941    1.379442    0.000023
     17          1           0       -3.112414   -1.473161   -0.000039
     18          1           0       -1.792683    1.410740   -0.000025
     19          1           0       -0.659803   -1.441885   -0.000055
     20          1           0        0.659814    1.441988   -0.000045
     21          1           0        1.792649   -1.410648   -0.000027
     22          1           0        3.112474    1.473208   -0.000038
     23          1           0        4.245876   -1.379440    0.000023
     24          1           0        5.576085    1.503578    0.000010
     25          1           0        7.647878    0.286335    0.000080
     26          1           0        6.725992   -1.339776    0.000080
 ---------------------------------------------------------------------
 Rotational constants (GHZ):     12.1482134      0.1737754      0.1713247
 Standard basis: STO-3G (5D, 7F)
 There are    74 symmetry adapted cartesian basis functions of A   symmetry.
 There are    74 symmetry adapted basis functions of A   symmetry.
    74 basis functions,   222 primitive gaussians,    74 cartesian basis functions
    43 alpha electrons       43 beta electrons
       nuclear repulsion energy       534.7356865146 Hartrees.
 NAtoms=   26 NActive=   26 NUniq=   26 SFac= 1.00D+00 NAtFMM=   60 NAOKFM=F Big=F
 Integral buffers will be    131072 words long.
 Raffenetti 2 integral format.
 Two-electron integral symmetry is turned on.
 One-electron integrals computed using PRISM.
 NBasis=    74 RedAO= T EigKep=  1.83D-01  NBF=    74
 NBsUse=    74 1.00D-06 EigRej= -1.00D+00 NBFU=    74
 ExpMin= 1.69D-01 ExpMax= 7.16D+01 ExpMxC= 7.16D+01 IAcc=1 IRadAn=         1 AccDes= 0.00D+00
 Harris functional with IExCor=  402 and IRadAn=       1 diagonalized for initial guess.
 HarFok:  IExCor=  402 AccDes= 0.00D+00 IRadAn=         1 IDoV= 1 UseB2=F ITyADJ=14
 ICtDFT=  3500011 ScaDFX=  1.000000  1.000000  1.000000  1.000000
 FoFCou: FMM=F IPFlag=           0 FMFlag=      100000 FMFlg1=           0
         NFxFlg=           0 DoJE=T BraDBF=F KetDBF=T FulRan=T
         wScrn=  0.000000 ICntrl=     500 IOpCl=  0 I1Cent=   200000004 NGrid=           0
         NMat0=    1 NMatS0=      1 NMatT0=    0 NMatD0=    1 NMtDS0=    0 NMtDT0=    0
 Petite list used in FoFCou.
 Keep R1 ints in memory in canonical form, NReq=4783276.
 Requested convergence on RMS density matrix=1.00D-08 within 128 cycles.
 Requested convergence on MAX density matrix=1.00D-06.
 Requested convergence on             energy=1.00D-06.
 No special actions if energy rises.
 Integral accuracy reduced to 1.0D-05 until final iterations.
 Initial convergence to 1.0D-05 achieved.  Increase integral accuracy.
 SCF Done:  E(RB3LYP) =  -459.890718081     A.U. after   13 cycles
            NFock= 13  Conv=0.38D-08     -V/T= 2.0158

 **********************************************************************

            Population analysis using the SCF density.

 **********************************************************************

 Orbital symmetries:
       Occupied  (A) (A) (A) (A) (A) (A) (A) (A) (A) (A) (A) (A)
                 (A) (A) (A) (A) (A) (A) (A) (A) (A) (A) (A) (A)
                 (A) (A) (A) (A) (A) (A) (A) (A) (A) (A) (A) (A)
                 (A) (A) (A) (A) (A) (A) (A)
       Virtual   (A) (A) (A) (A) (A) (A) (A) (A) (A) (A) (A) (A)
                 (A) (A) (A) (A) (A) (A) (A) (A) (A) (A) (A) (A)
                 (A) (A) (A) (A) (A) (A) (A)
 The electronic state is 1-A.
 Alpha  occ. eigenvalues --  -10.00542 -10.00542 -10.00414 -10.00408 -10.00395
 Alpha  occ. eigenvalues --  -10.00329 -10.00321 -10.00309 -10.00296 -10.00285
 Alpha  occ. eigenvalues --   -9.98774  -9.98774  -0.78489  -0.77264  -0.75283
 Alpha  occ. eigenvalues --   -0.72626  -0.69452  -0.66231  -0.58267  -0.54619
 Alpha  occ. eigenvalues --   -0.53295  -0.52366  -0.51089  -0.50972  -0.44539
 Alpha  occ. eigenvalues --   -0.43550  -0.41751  -0.41304  -0.37502  -0.37418
 Alpha  occ. eigenvalues --   -0.35148  -0.34267  -0.33370  -0.33101  -0.32253
 Alpha  occ. eigenvalues --   -0.30718  -0.30147  -0.28561  -0.28457  -0.25686
 Alpha  occ. eigenvalues --   -0.21919  -0.17384  -0.12840
 Alpha virt. eigenvalues --    0.01790   0.06919   0.12446   0.17322   0.21040
 Alpha virt. eigenvalues --    0.23335   0.32719   0.35674   0.39012   0.41118
 Alpha virt. eigenvalues --    0.41386   0.41624   0.41728   0.42125   0.42226
 Alpha virt. eigenvalues --    0.43420   0.43783   0.44588   0.45584   0.55758
 Alpha virt. eigenvalues --    0.55911   0.59292   0.61473   0.64560   0.65765
 Alpha virt. eigenvalues --    0.68902   0.70299   0.71917   0.75111   0.78338
 Alpha virt. eigenvalues --    0.80505
          Condensed to atoms (all electrons):
               1          2          3          4          5          6
     1  C    4.856366   0.583591  -0.031423   0.000863  -0.000009   0.000000
     2  C    0.583591   4.792522   0.423760  -0.030923   0.001015  -0.000009
     3  C   -0.031423   0.423760   4.815554   0.568417  -0.030913   0.000867
     4  C    0.000863  -0.030923   0.568417   4.811991   0.428059  -0.030897
     5  C   -0.000009   0.001015  -0.030913   0.428059   4.814347   0.566175
     6  C    0.000000  -0.000009   0.000867  -0.030897   0.566175   4.813650
     7  C    0.000000   0.000000  -0.000009   0.001007  -0.030908   0.428815
     8  C    0.000000   0.000000   0.000000  -0.000009   0.000870  -0.030909
     9  C    0.000000   0.000000   0.000000   0.000000  -0.000009   0.001007
    10  C    0.000000   0.000000   0.000000   0.000000   0.000000  -0.000009
    11  C    0.000000   0.000000   0.000000   0.000000   0.000000   0.000000
    12  C    0.000000   0.000000   0.000000   0.000000   0.000000   0.000000
    13  H    0.390190  -0.025366  -0.005256   0.000045  -0.000001   0.000000
    14  H    0.390721  -0.026069   0.001656  -0.000026   0.000000   0.000000
    15  H   -0.028402   0.390213  -0.022714  -0.003312   0.000007   0.000000
    16  H   -0.003317  -0.022863   0.389742  -0.027513  -0.005198   0.000046
    17  H    0.000046  -0.005212  -0.027575   0.389647  -0.022844  -0.003387
    18  H    0.000000   0.000008  -0.003386  -0.022834   0.389677  -0.027578
    19  H    0.000000  -0.000001   0.000046  -0.005211  -0.027585   0.389659
    20  H    0.000000   0.000000   0.000000   0.000008  -0.003388  -0.022837
    21  H    0.000000   0.000000   0.000000  -0.000001   0.000046  -0.005211
    22  H    0.000000   0.000000   0.000000   0.000000   0.000000   0.000008
    23  H    0.000000   0.000000   0.000000   0.000000   0.000000  -0.000001
    24  H    0.000000   0.000000   0.000000   0.000000   0.000000   0.000000
    25  H    0.000000   0.000000   0.000000   0.000000   0.000000   0.000000
    26  H    0.000000   0.000000   0.000000   0.000000   0.000000   0.000000
               7          8          9         10         11         12
     1  C    0.000000   0.000000   0.000000   0.000000   0.000000   0.000000
     2  C    0.000000   0.000000   0.000000   0.000000   0.000000   0.000000
     3  C   -0.000009   0.000000   0.000000   0.000000   0.000000   0.000000
     4  C    0.001007  -0.000009   0.000000   0.000000   0.000000   0.000000
     5  C   -0.030908   0.000870  -0.000009   0.000000   0.000000   0.000000
     6  C    0.428815  -0.030909   0.001007  -0.000009   0.000000   0.000000
     7  C    4.813651   0.566174  -0.030896   0.000867  -0.000009   0.000000
     8  C    0.566174   4.814351   0.428055  -0.030913   0.001015  -0.000009
     9  C   -0.030896   0.428055   4.811993   0.568417  -0.030923   0.000863
    10  C    0.000867  -0.030913   0.568417   4.815554   0.423761  -0.031423
    11  C   -0.000009   0.001015  -0.030923   0.423761   4.792522   0.583589
    12  C    0.000000  -0.000009   0.000863  -0.031423   0.583589   4.856367
    13  H    0.000000   0.000000   0.000000   0.000000   0.000000   0.000000
    14  H    0.000000   0.000000   0.000000   0.000000   0.000000   0.000000
    15  H    0.000000   0.000000   0.000000   0.000000   0.000000   0.000000
    16  H   -0.000001   0.000000   0.000000   0.000000   0.000000   0.000000
    17  H    0.000008   0.000000   0.000000   0.000000   0.000000   0.000000
    18  H   -0.005211   0.000046  -0.000001   0.000000   0.000000   0.000000
    19  H   -0.022837  -0.003388   0.000008   0.000000   0.000000   0.000000
    20  H    0.389660  -0.027585  -0.005211   0.000046  -0.000001   0.000000
    21  H   -0.027578   0.389679  -0.022834  -0.003386   0.000008   0.000000
    22  H   -0.003386  -0.022843   0.389647  -0.027575  -0.005212   0.000046
    23  H    0.000046  -0.005198  -0.027513   0.389743  -0.022864  -0.003317
    24  H    0.000000   0.000007  -0.003312  -0.022714   0.390213  -0.028402
    25  H    0.000000   0.000000  -0.000026   0.001656  -0.026069   0.390721
    26  H    0.000000  -0.000001   0.000045  -0.005256  -0.025367   0.390191
              13         14         15         16         17         18
     1  C    0.390190   0.390721  -0.028402  -0.003317   0.000046   0.000000
     2  C   -0.025366  -0.026069   0.390213  -0.022863  -0.005212   0.000008
     3  C   -0.005256   0.001656  -0.022714   0.389742  -0.027575  -0.003386
     4  C    0.000045  -0.000026  -0.003312  -0.027513   0.389647  -0.022834
     5  C   -0.000001   0.000000   0.000007  -0.005198  -0.022844   0.389677
     6  C    0.000000   0.000000   0.000000   0.000046  -0.003387  -0.027578
     7  C    0.000000   0.000000   0.000000  -0.000001   0.000008  -0.005211
     8  C    0.000000   0.000000   0.000000   0.000000   0.000000   0.000046
     9  C    0.000000   0.000000   0.000000   0.000000   0.000000  -0.000001
    10  C    0.000000   0.000000   0.000000   0.000000   0.000000   0.000000
    11  C    0.000000   0.000000   0.000000   0.000000   0.000000   0.000000
    12  C    0.000000   0.000000   0.000000   0.000000   0.000000   0.000000
    13  H    0.582084  -0.022721   0.002154   0.000872   0.000001   0.000000
    14  H   -0.022721   0.583666  -0.005297   0.000010  -0.000002   0.000000
    15  H    0.002154  -0.005297   0.584478   0.001388   0.000856  -0.000001
    16  H    0.000872   0.000010   0.001388   0.583576   0.002093   0.000861
    17  H    0.000001  -0.000002   0.000856   0.002093   0.584340   0.001389
    18  H    0.000000   0.000000  -0.000001   0.000861   0.001389   0.584373
    19  H    0.000000   0.000000   0.000000   0.000001   0.000864   0.002097
    20  H    0.000000   0.000000   0.000000   0.000000  -0.000001   0.000863
    21  H    0.000000   0.000000   0.000000   0.000000   0.000000   0.000001
    22  H    0.000000   0.000000   0.000000   0.000000   0.000000   0.000000
    23  H    0.000000   0.000000   0.000000   0.000000   0.000000   0.000000
    24  H    0.000000   0.000000   0.000000   0.000000   0.000000   0.000000
    25  H    0.000000   0.000000   0.000000   0.000000   0.000000   0.000000
    26  H    0.000000   0.000000   0.000000   0.000000   0.000000   0.000000
              19         20         21         22         23         24
     1  C    0.000000   0.000000   0.000000   0.000000   0.000000   0.000000
     2  C   -0.000001   0.000000   0.000000   0.000000   0.000000   0.000000
     3  C    0.000046   0.000000   0.000000   0.000000   0.000000   0.000000
     4  C   -0.005211   0.000008  -0.000001   0.000000   0.000000   0.000000
     5  C   -0.027585  -0.003388   0.000046   0.000000   0.000000   0.000000
     6  C    0.389659  -0.022837  -0.005211   0.000008  -0.000001   0.000000
     7  C   -0.022837   0.389660  -0.027578  -0.003386   0.000046   0.000000
     8  C   -0.003388  -0.027585   0.389679  -0.022843  -0.005198   0.000007
     9  C    0.000008  -0.005211  -0.022834   0.389647  -0.027513  -0.003312
    10  C    0.000000   0.000046  -0.003386  -0.027575   0.389743  -0.022714
    11  C    0.000000  -0.000001   0.000008  -0.005212  -0.022864   0.390213
    12  C    0.000000   0.000000   0.000000   0.000046  -0.003317  -0.028402
    13  H    0.000000   0.000000   0.000000   0.000000   0.000000   0.000000
    14  H    0.000000   0.000000   0.000000   0.000000   0.000000   0.000000
    15  H    0.000000   0.000000   0.000000   0.000000   0.000000   0.000000
    16  H    0.000001   0.000000   0.000000   0.000000   0.000000   0.000000
    17  H    0.000864  -0.000001   0.000000   0.000000   0.000000   0.000000
    18  H    0.002097   0.000863   0.000001   0.000000   0.000000   0.000000
    19  H    0.584471   0.001389   0.000863  -0.000001   0.000000   0.000000
    20  H    0.001389   0.584467   0.002097   0.000864   0.000001   0.000000
    21  H    0.000863   0.002097   0.584371   0.001389   0.000861  -0.000001
    22  H   -0.000001   0.000864   0.001389   0.584337   0.002093   0.000856
    23  H    0.000000   0.000001   0.000861   0.002093   0.583577   0.001388
    24  H    0.000000   0.000000  -0.000001   0.000856   0.001388   0.584478
    25  H    0.000000   0.000000   0.000000  -0.000002   0.000010  -0.005297
    26  H    0.000000   0.000000   0.000000   0.000001   0.000872   0.002154
              25         26
     1  C    0.000000   0.000000
     2  C    0.000000   0.000000
     3  C    0.000000   0.000000
     4  C    0.000000   0.000000
     5  C    0.000000   0.000000
     6  C    0.000000   0.000000
     7  C    0.000000   0.000000
     8  C    0.000000  -0.000001
     9  C   -0.000026   0.000045
    10  C    0.001656  -0.005256
    11  C   -0.026069  -0.025367
    12  C    0.390721   0.390191
    13  H    0.000000   0.000000
    14  H    0.000000   0.000000
    15  H    0.000000   0.000000
    16  H    0.000000   0.000000
    17  H    0.000000   0.000000
    18  H    0.000000   0.000000
    19  H    0.000000   0.000000
    20  H    0.000000   0.000000
    21  H    0.000000   0.000000
    22  H   -0.000002   0.000001
    23  H    0.000010   0.000872
    24  H   -0.005297   0.002154
    25  H    0.583665  -0.022720
    26  H   -0.022720   0.582083
 Mulliken charges:
               1
     1  C   -0.158625
     2  C   -0.080663
     3  C   -0.078766
     4  C   -0.079309
     5  C   -0.079341
     6  C   -0.079390
     7  C   -0.079392
     8  C   -0.079340
     9  C   -0.079309
    10  C   -0.078767
    11  C   -0.080663
    12  C   -0.158625
    13  H    0.077998
    14  H    0.078062
    15  H    0.080631
    16  H    0.080302
    17  H    0.079777
    18  H    0.079696
    19  H    0.079627
    20  H    0.079628
    21  H    0.079697
    22  H    0.079778
    23  H    0.080302
    24  H    0.080631
    25  H    0.078062
    26  H    0.077999
 Sum of Mulliken charges =   0.00000
 Mulliken charges with hydrogens summed into heavy atoms:
               1
     1  C   -0.002565
     2  C   -0.000032
     3  C    0.001536
     4  C    0.000468
     5  C    0.000356
     6  C    0.000237
     7  C    0.000236
     8  C    0.000357
     9  C    0.000468
    10  C    0.001535
    11  C   -0.000033
    12  C   -0.002564
 Electronic spatial extent (au):  <R**2>=           6046.2843
 Charge=              0.0000 electrons
 Dipole moment (field-independent basis, Debye):
    X=              0.0000    Y=              0.0000    Z=              0.0000  Tot=              0.0001
 Quadrupole moment (field-independent basis, Debye-Ang):
   XX=            -64.4888   YY=            -61.1517   ZZ=            -71.9965
   XY=              0.4803   XZ=              0.0000   YZ=              0.0000
 Traceless Quadrupole moment (field-independent basis, Debye-Ang):
   XX=              1.3902   YY=              4.7273   ZZ=             -6.1175
   XY=              0.4803   XZ=              0.0000   YZ=              0.0000
 Octapole moment (field-independent basis, Debye-Ang**2):
  XXX=              0.0019  YYY=              0.0001  ZZZ=              0.0000  XYY=             -0.0003
  XXY=              0.0006  XXZ=              0.0012  XZZ=              0.0000  YZZ=              0.0000
  YYZ=              0.0000  XYZ=             -0.0005
 Hexadecapole moment (field-independent basis, Debye-Ang**3):
 XXXX=          -7284.5286 YYYY=           -179.3502 ZZZZ=            -58.3554 XXXY=             48.9099
 XXXZ=             -0.0013 YYYX=             -2.2778 YYYZ=              0.0001 ZZZX=              0.0000
 ZZZY=              0.0000 XXYY=          -1203.0859 XXZZ=          -1376.4046 YYZZ=            -45.7655
 XXYZ=              0.0006 YYXZ=              0.0000 ZZXY=             -0.1543
 N-N= 5.347356865146D+02 E-N=-2.133746814601D+03  KE= 4.527400646689D+02
 Calling FoFJK, ICntrl=      2127 FMM=F ISym2X=0 I1Cent= 0 IOpClX= 0 NMat=1 NMatS=1 NMatT=0.
 ***** Axes restored to original set *****
 -------------------------------------------------------------------
 Center     Atomic                   Forces (Hartrees/Bohr)
 Number     Number              X              Y              Z
 -------------------------------------------------------------------
      1        6          -0.007889256   -0.001942694    0.001448113
      2        6           0.012774430   -0.007355857    0.009742410
      3        6          -0.023803599   -0.000716902   -0.001551932
      4        6           0.028736178    0.001624890    0.000998920
      5        6          -0.029724741   -0.003151496    0.000660108
      6        6           0.030539862    0.003236460   -0.000676815
      7        6          -0.030538733   -0.003229178    0.000668464
      8        6           0.029735959    0.003143724   -0.000651199
      9        6          -0.028745798   -0.001623923   -0.000998833
     10        6           0.023801826    0.000715588    0.001550775
     11        6          -0.012771344    0.007357397   -0.009743264
     12        6           0.007890360    0.001937789   -0.001442242
     13        1           0.001624835   -0.005398633    0.006375954
     14        1          -0.008472714   -0.004546535    0.004387219
     15        1          -0.000512150    0.007741188   -0.008960869
     16        1           0.001508840   -0.006033920    0.007095673
     17        1          -0.001693176    0.006046599   -0.007128652
     18        1           0.001658884   -0.006019069    0.007093819
     19        1          -0.001677252    0.006028689   -0.007106304
     20        1           0.001679751   -0.006030683    0.007109876
     21        1          -0.001663986    0.006023183   -0.007098490
     22        1           0.001694708   -0.006047732    0.007130452
     23        1          -0.001510694    0.006034747   -0.007096838
     24        1           0.000514348   -0.007741039    0.008961785
     25        1           0.008469198    0.004546458   -0.004388739
     26        1          -0.001625735    0.005400949   -0.006379392
 -------------------------------------------------------------------
 Cartesian Forces:  Max     0.030539862 RMS     0.010500649

 GradGradGradGradGradGradGradGradGradGradGradGradGradGradGradGradGradGrad
 Berny optimization.
 FormGI is forming the generalized inverse of G from B-inverse, IUseBI=4.
 GSVD:  received Info=                   1 from GESDD.
 Internal  Forces:  Max     0.036432848 RMS     0.009712560
 Search for a local minimum.
 Step number   1 out of a maximum of  115
 All quantities printed in internal units (Hartrees-Bohrs-Radians)
 Mixed Optimization -- RFO/linear search
 Second derivative matrix not updated -- first step.
 ITU=  0
     Eigenvalues ---    0.01060   0.01060   0.01060   0.01067   0.01067
     Eigenvalues ---    0.01979   0.01979   0.01979   0.01979   0.01979
     Eigenvalues ---    0.01979   0.01983   0.01983   0.01999   0.01999
     Eigenvalues ---    0.02888   0.02888   0.02889   0.02889   0.02949
     Eigenvalues ---    0.02949   0.02949   0.02949   0.16000   0.16000
     Eigenvalues ---    0.16000   0.16000   0.16000   0.16000   0.16000
     Eigenvalues ---    0.16000   0.16000   0.16000   0.16000   0.16000
     Eigenvalues ---    0.16000   0.16000   0.22000   0.22000   0.22000
     Eigenvalues ---    0.22000   0.22000   0.22000   0.22000   0.22000
     Eigenvalues ---    0.22000   0.22000   0.34825   0.34826   0.34827
     Eigenvalues ---    0.34885   0.34885   0.35080   0.35080   0.35080
     Eigenvalues ---    0.35080   0.35081   0.35081   0.35082   0.35082
     Eigenvalues ---    0.35192   0.35192   0.35272   0.35272   0.35371
     Eigenvalues ---    0.35371   0.57301   0.57303   0.57311   0.57311
     Eigenvalues ---    0.58346   0.58347
 RFO step:  Lambda=-2.53489857D-02 EMin= 1.05987723D-02
 Linear search not attempted -- first point.
 Iteration  1 RMS(Cart)=  0.11186559 RMS(Int)=  0.00052846
 Iteration  2 RMS(Cart)=  0.00078632 RMS(Int)=  0.00000012
 Iteration  3 RMS(Cart)=  0.00000056 RMS(Int)=  0.00000004
 Variable       Old X    -DE/DX   Delta X   Delta X   Delta X     New X
                                 (Linear)    (Quad)   (Total)
    R1        2.52273   0.02167   0.00000   0.03560   0.03560   2.55832
    R2        2.05236   0.00785   0.00000   0.02077   0.02077   2.07313
    R3        2.05077   0.00900   0.00000   0.02373   0.02373   2.07450
    R4        2.79163   0.00430   0.00000   0.01148   0.01148   2.80311
    R5        2.05364   0.00989   0.00000   0.02620   0.02620   2.07985
    R6        2.53134   0.03400   0.00000   0.05681   0.05681   2.58815
    R7        2.05546   0.00848   0.00000   0.02253   0.02253   2.07799
    R8        2.79257  -0.00054   0.00000  -0.00144  -0.00144   2.79114
    R9        2.05545   0.00861   0.00000   0.02288   0.02288   2.07833
   R10        2.53141   0.03643   0.00000   0.06089   0.06089   2.59230
   R11        2.05543   0.00855   0.00000   0.02273   0.02273   2.07816
   R12        2.79258  -0.00134   0.00000  -0.00358  -0.00358   2.78899
   R13        2.05543   0.00857   0.00000   0.02279   0.02279   2.07823
   R14        2.53142   0.03642   0.00000   0.06087   0.06087   2.59229
   R15        2.05542   0.00858   0.00000   0.02281   0.02281   2.07823
   R16        2.79260  -0.00055   0.00000  -0.00146  -0.00146   2.79114
   R17        2.05541   0.00856   0.00000   0.02275   0.02275   2.07816
   R18        2.53134   0.03400   0.00000   0.05681   0.05681   2.58815
   R19        2.05545   0.00861   0.00000   0.02289   0.02289   2.07834
   R20        2.79162   0.00430   0.00000   0.01149   0.01149   2.80311
   R21        2.05545   0.00848   0.00000   0.02254   0.02254   2.07799
   R22        2.52273   0.02167   0.00000   0.03559   0.03559   2.55832
   R23        2.05364   0.00989   0.00000   0.02621   0.02621   2.07985
   R24        2.05077   0.00899   0.00000   0.02372   0.02372   2.07450
   R25        2.05235   0.00786   0.00000   0.02078   0.02078   2.07313
    A1        2.11523   0.00070   0.00000   0.00376   0.00376   2.11899
    A2        2.09390   0.00534   0.00000   0.02882   0.02882   2.12272
    A3        2.07405  -0.00604   0.00000  -0.03258  -0.03258   2.04148
    A4        2.11446   0.01174   0.00000   0.04785   0.04785   2.16231
    A5        2.07579   0.00085   0.00000   0.01230   0.01230   2.08809
    A6        2.09293  -0.01258   0.00000  -0.06015  -0.06015   2.03278
    A7        2.11092   0.01256   0.00000   0.05120   0.05120   2.16212
    A8        2.08109  -0.01054   0.00000  -0.04859  -0.04859   2.03249
    A9        2.09118  -0.00202   0.00000  -0.00261  -0.00261   2.08857
   A10        2.11135   0.01260   0.00000   0.05134   0.05134   2.16269
   A11        2.09029  -0.00216   0.00000  -0.00336  -0.00336   2.08693
   A12        2.08154  -0.01043   0.00000  -0.04797  -0.04797   2.03357
   A13        2.11132   0.01252   0.00000   0.05101   0.05101   2.16233
   A14        2.08139  -0.01039   0.00000  -0.04782  -0.04782   2.03358
   A15        2.09047  -0.00212   0.00000  -0.00320  -0.00320   2.08727
   A16        2.11133   0.01256   0.00000   0.05118   0.05118   2.16251
   A17        2.09046  -0.00215   0.00000  -0.00331  -0.00331   2.08715
   A18        2.08139  -0.01041   0.00000  -0.04787  -0.04787   2.03353
   A19        2.11131   0.01256   0.00000   0.05120   0.05120   2.16251
   A20        2.08141  -0.01041   0.00000  -0.04788  -0.04788   2.03353
   A21        2.09046  -0.00215   0.00000  -0.00332  -0.00332   2.08715
   A22        2.11133   0.01251   0.00000   0.05100   0.05100   2.16233
   A23        2.09047  -0.00212   0.00000  -0.00319  -0.00319   2.08728
   A24        2.08138  -0.01039   0.00000  -0.04781  -0.04781   2.03357
   A25        2.11134   0.01260   0.00000   0.05134   0.05134   2.16268
   A26        2.08155  -0.01043   0.00000  -0.04798  -0.04798   2.03358
   A27        2.09030  -0.00216   0.00000  -0.00337  -0.00337   2.08693
   A28        2.11093   0.01256   0.00000   0.05119   0.05119   2.16212
   A29        2.09118  -0.00202   0.00000  -0.00261  -0.00261   2.08857
   A30        2.08108  -0.01054   0.00000  -0.04859  -0.04859   2.03249
   A31        2.11446   0.01174   0.00000   0.04785   0.04785   2.16231
   A32        2.09293  -0.01258   0.00000  -0.06015  -0.06015   2.03278
   A33        2.07579   0.00084   0.00000   0.01230   0.01230   2.08809
   A34        2.09390   0.00534   0.00000   0.02882   0.02882   2.12272
   A35        2.11521   0.00070   0.00000   0.00377   0.00377   2.11898
   A36        2.07407  -0.00604   0.00000  -0.03259  -0.03259   2.04148
    D1       -0.00001   0.00000   0.00000   0.00001   0.00001   0.00000
    D2        3.14159   0.00000   0.00000   0.00000   0.00000   3.14159
    D3        3.14159   0.00000   0.00000   0.00000   0.00000   3.14159
    D4        0.00000   0.00000   0.00000   0.00000   0.00000   0.00000
    D5        3.14158   0.00000   0.00000   0.00000   0.00000   3.14159
    D6        0.00001   0.00000   0.00000  -0.00001  -0.00001   0.00000
    D7       -0.00002   0.00000   0.00000   0.00001   0.00001  -0.00001
    D8        3.14159   0.00000   0.00000   0.00000   0.00000   3.14159
    D9       -3.14159   0.00000   0.00000   0.00000   0.00000  -3.14159
   D10        0.00001   0.00000   0.00000  -0.00001  -0.00001   0.00001
   D11       -0.00001   0.00000   0.00000   0.00000   0.00001   0.00000
   D12        3.14159   0.00000   0.00000   0.00000   0.00000   3.14159
   D13        3.14158   0.00000   0.00000   0.00000   0.00000   3.14158
   D14        0.00000   0.00000   0.00000   0.00000   0.00000   0.00000
   D15       -0.00002   0.00000   0.00000   0.00001   0.00001  -0.00001
   D16        3.14159   0.00000   0.00000   0.00000   0.00000   3.14159
   D17       -3.14158   0.00000   0.00000   0.00000   0.00000  -3.14159
   D18        0.00001   0.00000   0.00000   0.00000   0.00000   0.00001
   D19       -0.00001   0.00000   0.00000   0.00000   0.00000   0.00000
   D20        3.14159   0.00000   0.00000   0.00001   0.00001   3.14159
   D21        3.14157   0.00000   0.00000   0.00001   0.00001   3.14158
   D22        0.00000   0.00000   0.00000   0.00000   0.00000   0.00000
   D23       -0.00002   0.00000   0.00000   0.00001   0.00001  -0.00001
   D24        3.14159   0.00000   0.00000   0.00000   0.00000   3.14159
   D25       -3.14158   0.00000   0.00000   0.00000   0.00000  -3.14159
   D26        0.00001   0.00000   0.00000   0.00000   0.00000   0.00000
   D27       -0.00001   0.00000   0.00000   0.00001   0.00001   0.00000
   D28        3.14158   0.00000   0.00000   0.00001   0.00001   3.14159
   D29        3.14158   0.00000   0.00000   0.00001   0.00001   3.14158
   D30       -0.00001   0.00000   0.00000   0.00000   0.00000  -0.00001
   D31       -0.00001   0.00000   0.00000   0.00000   0.00000  -0.00001
   D32        3.14159   0.00000   0.00000   0.00000   0.00000   3.14159
   D33       -3.14159   0.00000   0.00000   0.00000   0.00000  -3.14159
   D34        0.00000   0.00000   0.00000   0.00000   0.00000   0.00000
   D35        0.00000   0.00000   0.00000   0.00000   0.00000   0.00000
   D36        3.14159   0.00000   0.00000   0.00000   0.00000   3.14159
   D37        3.14158   0.00000   0.00000   0.00000   0.00000   3.14159
   D38        0.00000   0.00000   0.00000   0.00000   0.00000   0.00000
   D39        0.00000   0.00000   0.00000   0.00000   0.00000   0.00000
   D40       -3.14159   0.00000   0.00000   0.00000   0.00000   3.14159
   D41        3.14159   0.00000   0.00000   0.00000   0.00000  -3.14159
   D42        0.00001   0.00000   0.00000  -0.00001  -0.00001   0.00000
   D43       -0.00001   0.00000   0.00000   0.00000   0.00000   0.00000
   D44       -3.14159   0.00000   0.00000   0.00000   0.00000  -3.14159
         Item               Value     Threshold  Converged?
 Maximum Force            0.036433     0.000015     NO 
 RMS     Force            0.009713     0.000010     NO 
 Maximum Displacement     0.303742     0.000060     NO 
 RMS     Displacement     0.111335     0.000040     NO 
 Predicted change in Energy=-1.368376D-02
 GradGradGradGradGradGradGradGradGradGradGradGradGradGradGradGradGradGrad

                          Input orientation:                          
 ---------------------------------------------------------------------
 Center     Atomic      Atomic             Coordinates (Angstroms)
 Number     Number       Type             X           Y           Z
 ---------------------------------------------------------------------
      1          6           0        1.077009   -0.296085   -0.267990
      2          6           0        1.683285    0.527341   -1.155228
      3          6           0        3.151708    0.722242   -1.233038
      4          6           0        3.764813    1.555330   -2.130726
      5          6           0        5.226858    1.749937   -2.208841
      6          6           0        5.840515    2.584472   -3.108156
      7          6           0        7.301403    2.779096   -3.186417
      8          6           0        7.915051    3.613622   -4.085746
      9          6           0        9.377095    3.808227   -4.163878
     10          6           0        9.990182    4.641292   -5.061598
     11          6           0       11.458603    4.836194   -5.139444
     12          6           0       12.064857    5.659589   -6.026725
     13          1           0        1.655901   -0.878176    0.459728
     14          1           0       -0.014328   -0.412208   -0.243224
     15          1           0        1.073998    1.097827   -1.872622
     16          1           0        3.760188    0.152140   -0.516163
     17          1           0        3.154728    2.124792   -2.847026
     18          1           0        5.836896    1.180528   -1.492600
     19          1           0        5.230340    3.153840   -3.824367
     20          1           0        7.911584    2.209735   -2.470206
     21          1           0        7.305007    4.183021   -4.801993
     22          1           0        9.987189    3.238785   -3.447570
     23          1           0        9.381687    5.211369   -5.778481
     24          1           0       12.067906    4.265736   -4.422041
     25          1           0       13.156193    5.775714   -6.051516
     26          1           0       11.485943    6.241650   -6.754452
 ---------------------------------------------------------------------
                    Distance matrix (angstroms):
                    1          2          3          4          5
     1  C    0.000000
     2  C    1.353807   0.000000
     3  C    2.504532   1.483343   0.000000
     4  C    3.757900   2.518157   1.369590   0.000000
     5  C    5.017405   3.893809   2.512886   1.477007   0.000000
     6  C    6.249412   5.032721   3.770100   2.514566   1.371784
     7  C    7.531071   6.384307   5.026560   3.888387   2.513675
     8  C    8.753278   7.546388   6.259988   5.028234   3.771269
     9  C   10.045633   8.888808   7.541125   6.380201   5.028240
    10  C   11.260597  10.059268   8.762509   7.541114   6.259986
    11  C   12.563791  11.401624  10.059280   8.888805   7.546394
    12  C   13.761028  12.563778  11.260598  10.045621   8.753277
    13  H    1.097051   2.141101   2.768435   4.132786   5.174937
    14  H    1.097778   2.143920   3.505780   4.660019   6.000713
    15  H    2.125522   1.100608   2.206130   2.741608   4.217172
    16  H    2.731656   2.205155   1.099625   2.139107   2.751224
    17  H    4.102315   2.753030   2.138250   1.099807   2.200345
    18  H    5.131918   4.218171   2.736355   2.200276   1.099716
    19  H    6.465289   5.157945   4.116839   2.751622   2.140299
    20  H    7.605282   6.584173   5.138058   4.211794   2.736326
    21  H    8.911091   7.633260   6.477988   5.154940   4.118621
    22  H   10.099324   9.031145   7.613209   6.579215   5.139248
    23  H   11.387064  10.128178   8.923337   7.630335   6.479695
    24  H   12.604212  11.510344  10.110622   9.029827   7.617574
    25  H   14.704510  13.533170  12.200207  11.017362   9.687486
    26  H   13.898276  12.652934  11.419691  10.146738   8.945066
                    6          7          8          9         10
     6  C    0.000000
     7  C    1.475871   0.000000
     8  C    2.513668   1.371783   0.000000
     9  C    3.888383   2.514565   1.477007   0.000000
    10  C    5.026548   3.770095   2.512880   1.369590   0.000000
    11  C    6.384300   5.032721   3.893806   2.518158   1.483343
    12  C    7.531057   6.249407   5.017398   3.757900   2.504531
    13  H    6.498518   7.651255   8.945085  10.146770  11.419712
    14  H    7.174059   8.506864   9.687483  11.017370  12.200198
    15  H    5.143573   6.582803   7.617555   9.029814  10.110592
    16  H    4.118547   5.154741   6.479711   7.630363   8.923357
    17  H    2.737325   4.211676   5.139233   6.579202   7.613182
    18  H    2.140349   2.751221   4.118626   5.154952   6.477995
    19  H    1.099750   2.199253   2.736309   4.211777   5.138030
    20  H    2.199258   1.099751   2.140299   2.751622   4.116838
    21  H    2.751214   2.140351   1.099717   2.200274   2.736343
    22  H    4.211678   2.737328   2.200348   1.099808   2.138253
    23  H    5.154718   4.118535   2.751212   2.139105   1.099625
    24  H    6.582806   5.143580   4.217174   2.741610   2.206130
    25  H    8.506852   7.174056   6.000706   4.660018   3.505777
    26  H    7.651227   6.498502   5.174920   4.132779   2.768429
                   11         12         13         14         15
    11  C    0.000000
    12  C    1.353807   0.000000
    13  H   12.652973  13.898303   0.000000
    14  H   13.533176  14.704501   1.871079   0.000000
    15  H   11.510323  12.604176   3.111761   2.473782   0.000000
    16  H   10.128212  11.387090   2.538098   3.826220   3.154350
    17  H    9.031125  10.099291   4.711574   4.822766   2.516656
    18  H    7.633279   8.911104   5.052779   6.191493   4.778751
    19  H    6.584148   7.605247   6.883839   7.283394   5.031072
    20  H    5.157951   6.465292   7.566590   8.640262   6.953131
    21  H    4.218159   5.131900   9.231134   9.770936   7.544874
    22  H    2.753037   4.102322  10.081007  11.118810   9.301029
    23  H    2.205154   2.731653  11.648415  12.269833  10.059556
    24  H    1.100609   2.125523  12.597672  13.613451  11.721826
    25  H    2.143918   1.097777  14.796191  15.668097  13.613421
    26  H    2.141099   1.097051  14.119704  14.796154  12.597610
                   16         17         18         19         20
    16  H    0.000000
    17  H    3.113015   0.000000
    18  H    2.514702   3.149624   0.000000
    19  H    4.702740   2.514419   3.114323   0.000000
    20  H    5.028526   4.772514   2.513824   3.148675   0.000000
    21  H    6.868921   5.028223   4.703445   2.513804   3.114326
    22  H    7.542948   6.948681   5.028246   4.772505   2.514422
    23  H    9.213525   7.542904   6.868915   5.028485   4.702732
    24  H   10.059609   9.301024   7.544906   6.953117   5.031084
    25  H   12.269867  11.118781   9.770955   8.640229   7.283400
    26  H   11.648419  10.080954   9.231130   7.566540   6.883832
                   21         22         23         24         25
    21  H    0.000000
    22  H    3.149626   0.000000
    23  H    2.514682   3.113016   0.000000
    24  H    4.778745   2.516665   3.154350   0.000000
    25  H    6.191474   4.822772   3.826216   2.473781   0.000000
    26  H    5.052749   4.711574   2.538088   3.111761   1.871082
                   26
    26  H    0.000000
 Stoichiometry    C12H14
 Framework group  C1[X(C12H14)]
 Deg. of freedom    72
 Full point group                 C1      NOp   1
 Largest Abelian subgroup         C1      NOp   1
 Largest concise Abelian subgroup C1      NOp   1
                         Standard orientation:                         
 ---------------------------------------------------------------------
 Center     Atomic      Atomic             Coordinates (Angstroms)
 Number     Number       Type             X           Y           Z
 ---------------------------------------------------------------------
      1          6           0       -6.876353    0.239344    0.000039
      2          6           0       -5.686326   -0.406124    0.000015
      3          6           0       -4.372181    0.281867    0.000003
      4          6           0       -3.168408   -0.371361   -0.000014
      5          6           0       -1.859487    0.312946   -0.000022
      6          6           0       -0.654016   -0.341753   -0.000029
      7          6           0        0.654022    0.341792   -0.000030
      8          6           0        1.859487   -0.312917   -0.000021
      9          6           0        3.168413    0.371379   -0.000015
     10          6           0        4.372175   -0.281868    0.000004
     11          6           0        5.686332    0.406098    0.000014
     12          6           0        6.876346   -0.239393    0.000040
     13          1           0       -6.932501    1.334956    0.000055
     14          1           0       -7.827995   -0.307915    0.000047
     15          1           0       -5.663976   -1.506505    0.000001
     16          1           0       -4.394826    1.381259    0.000015
     17          1           0       -3.147571   -1.470971   -0.000026
     18          1           0       -1.880317    1.412465   -0.000016
     19          1           0       -0.633327   -1.441309   -0.000034
     20          1           0        0.633341    1.441348   -0.000030
     21          1           0        1.880311   -1.412437   -0.000016
     22          1           0        3.147588    1.470990   -0.000025
     23          1           0        4.394800   -1.381260    0.000015
     24          1           0        5.664003    1.506480    0.000002
     25          1           0        7.827998    0.307847    0.000048
     26          1           0        6.932467   -1.335008    0.000052
 ---------------------------------------------------------------------
 Rotational constants (GHZ):     12.4863922      0.1653892      0.1632271
 Standard basis: STO-3G (5D, 7F)
 There are    74 symmetry adapted cartesian basis functions of A   symmetry.
 There are    74 symmetry adapted basis functions of A   symmetry.
    74 basis functions,   222 primitive gaussians,    74 cartesian basis functions
    43 alpha electrons       43 beta electrons
       nuclear repulsion energy       525.1022889772 Hartrees.
 NAtoms=   26 NActive=   26 NUniq=   26 SFac= 1.00D+00 NAtFMM=   60 NAOKFM=F Big=F
 Integral buffers will be    131072 words long.
 Raffenetti 2 integral format.
 Two-electron integral symmetry is turned on.
 One-electron integrals computed using PRISM.
 NBasis=    74 RedAO= T EigKep=  1.96D-01  NBF=    74
 NBsUse=    74 1.00D-06 EigRej= -1.00D+00 NBFU=    74
 Initial guess from the checkpoint file:  "/data/scratch/Gau-51413.chk"
 B after Tr=     0.000000    0.000000    0.000000
         Rot=    1.000000    0.000000    0.000000   -0.000551 Ang=   0.06 deg.
 ExpMin= 1.69D-01 ExpMax= 7.16D+01 ExpMxC= 7.16D+01 IAcc=1 IRadAn=         1 AccDes= 0.00D+00
 Harris functional with IExCor=  402 and IRadAn=       1 diagonalized for initial guess.
 HarFok:  IExCor=  402 AccDes= 0.00D+00 IRadAn=         1 IDoV= 1 UseB2=F ITyADJ=14
 ICtDFT=  3500011 ScaDFX=  1.000000  1.000000  1.000000  1.000000
 FoFCou: FMM=F IPFlag=           0 FMFlag=      100000 FMFlg1=           0
         NFxFlg=           0 DoJE=T BraDBF=F KetDBF=T FulRan=T
         wScrn=  0.000000 ICntrl=     500 IOpCl=  0 I1Cent=   200000004 NGrid=           0
         NMat0=    1 NMatS0=      1 NMatT0=    0 NMatD0=    1 NMtDS0=    0 NMtDT0=    0
 Petite list used in FoFCou.
 Keep R1 ints in memory in canonical form, NReq=4783276.
 Requested convergence on RMS density matrix=1.00D-08 within 128 cycles.
 Requested convergence on MAX density matrix=1.00D-06.
 Requested convergence on             energy=1.00D-06.
 No special actions if energy rises.
 Integral accuracy reduced to 1.0D-05 until final iterations.
 Initial convergence to 1.0D-05 achieved.  Increase integral accuracy.
 SCF Done:  E(RB3LYP) =  -459.901834571     A.U. after   12 cycles
            NFock= 12  Conv=0.75D-08     -V/T= 2.0170
 Calling FoFJK, ICntrl=      2127 FMM=F ISym2X=0 I1Cent= 0 IOpClX= 0 NMat=1 NMatS=1 NMatT=0.
 ***** Axes restored to original set *****
 -------------------------------------------------------------------
 Center     Atomic                   Forces (Hartrees/Bohr)
 Number     Number              X              Y              Z
 -------------------------------------------------------------------
      1        6           0.002655575    0.004373079   -0.004768513
      2        6           0.001384434   -0.003186279    0.003806021
      3        6          -0.002452663    0.003457876   -0.004225398
      4        6           0.004939534   -0.002589449    0.003474034
      5        6          -0.005600300    0.001886917   -0.002731289
      6        6           0.006134819   -0.001741259    0.002616810
      7        6          -0.006135727    0.001740253   -0.002616018
      8        6           0.005600913   -0.001886168    0.002730154
      9        6          -0.004939818    0.002589722   -0.003473868
     10        6           0.002453102   -0.003457715    0.004224753
     11        6          -0.001384305    0.003186070   -0.003805696
     12        6          -0.002656772   -0.004373148    0.004768965
     13        1          -0.000697440   -0.000167714    0.000123561
     14        1           0.001355208   -0.000217516    0.000385565
     15        1           0.000513021    0.000121150   -0.000088386
     16        1           0.000657176   -0.000018394    0.000086882
     17        1          -0.000719817   -0.000040742   -0.000025178
     18        1           0.000796539    0.000074515   -0.000006149
     19        1          -0.000820041   -0.000091990    0.000023893
     20        1           0.000819416    0.000092225   -0.000024127
     21        1          -0.000796197   -0.000075189    0.000007116
     22        1           0.000719653    0.000040864    0.000024747
     23        1          -0.000656921    0.000018290   -0.000086567
     24        1          -0.000513117   -0.000121011    0.000088150
     25        1          -0.001354602    0.000217924   -0.000386013
     26        1           0.000698328    0.000167687   -0.000123449
 -------------------------------------------------------------------
 Cartesian Forces:  Max     0.006135727 RMS     0.002529320

 GradGradGradGradGradGradGradGradGradGradGradGradGradGradGradGradGradGrad
 Berny optimization.
 Using GEDIIS/GDIIS optimizer.
 FormGI is forming the generalized inverse of G from B-inverse, IUseBI=4.
 GSVD:  received Info=                   1 from GESDD.
 Internal  Forces:  Max     0.008382597 RMS     0.002265379
 Search for a local minimum.
 Step number   2 out of a maximum of  115
 All quantities printed in internal units (Hartrees-Bohrs-Radians)
 Mixed Optimization -- RFO/linear search
 Update second derivatives using D2CorX and points    1    2
 DE= -1.11D-02 DEPred=-1.37D-02 R= 8.12D-01
 TightC=F SS=  1.41D+00  RLast= 2.82D-01 DXNew= 5.0454D-01 8.4656D-01
 Trust test= 8.12D-01 RLast= 2.82D-01 DXMaxT set to 5.05D-01
 ITU=  1  0
 Use linear search instead of GDIIS.
     Eigenvalues ---    0.01060   0.01060   0.01060   0.01067   0.01067
     Eigenvalues ---    0.02000   0.02000   0.02000   0.02000   0.02000
     Eigenvalues ---    0.02000   0.02005   0.02005   0.02036   0.02036
     Eigenvalues ---    0.02888   0.02888   0.02889   0.02889   0.02949
     Eigenvalues ---    0.02949   0.02949   0.02949   0.15834   0.16000
     Eigenvalues ---    0.16000   0.16000   0.16000   0.16000   0.16000
     Eigenvalues ---    0.16000   0.16000   0.16000   0.16000   0.16000
     Eigenvalues ---    0.16000   0.16317   0.21959   0.22000   0.22000
     Eigenvalues ---    0.22000   0.22000   0.22000   0.22000   0.22000
     Eigenvalues ---    0.22000   0.22346   0.33535   0.34825   0.34827
     Eigenvalues ---    0.34882   0.34885   0.35080   0.35080   0.35080
     Eigenvalues ---    0.35081   0.35081   0.35082   0.35082   0.35156
     Eigenvalues ---    0.35192   0.35248   0.35272   0.35332   0.35371
     Eigenvalues ---    0.36868   0.57275   0.57302   0.57311   0.57953
     Eigenvalues ---    0.58347   0.66881
 RFO step:  Lambda=-8.18150316D-04 EMin= 1.05987723D-02
 Quartic linear search produced a step of -0.09689.
 Iteration  1 RMS(Cart)=  0.02240269 RMS(Int)=  0.00000856
 Iteration  2 RMS(Cart)=  0.00000857 RMS(Int)=  0.00000001
 Iteration  3 RMS(Cart)=  0.00000000 RMS(Int)=  0.00000001
 Variable       Old X    -DE/DX   Delta X   Delta X   Delta X     New X
                                 (Linear)    (Quad)   (Total)
    R1        2.55832  -0.00670  -0.00345  -0.00580  -0.00925   2.54907
    R2        2.07313  -0.00020  -0.00201   0.00217   0.00015   2.07328
    R3        2.07450  -0.00132  -0.00230  -0.00030  -0.00260   2.07190
    R4        2.80311  -0.00531  -0.00111  -0.01224  -0.01335   2.78976
    R5        2.07985  -0.00016  -0.00254   0.00295   0.00041   2.08025
    R6        2.58815  -0.00725  -0.00550  -0.00414  -0.00964   2.57851
    R7        2.07799   0.00043  -0.00218   0.00400   0.00182   2.07981
    R8        2.79114  -0.00785   0.00014  -0.02050  -0.02036   2.77078
    R9        2.07833   0.00039  -0.00222   0.00395   0.00173   2.08007
   R10        2.59230  -0.00611  -0.00590  -0.00183  -0.00773   2.58457
   R11        2.07816   0.00040  -0.00220   0.00395   0.00174   2.07991
   R12        2.78899  -0.00838   0.00035  -0.02214  -0.02180   2.76720
   R13        2.07823   0.00039  -0.00221   0.00393   0.00173   2.07995
   R14        2.59229  -0.00611  -0.00590  -0.00183  -0.00773   2.58457
   R15        2.07823   0.00039  -0.00221   0.00393   0.00172   2.07995
   R16        2.79114  -0.00785   0.00014  -0.02050  -0.02036   2.77078
   R17        2.07816   0.00040  -0.00220   0.00395   0.00174   2.07991
   R18        2.58815  -0.00725  -0.00550  -0.00414  -0.00964   2.57851
   R19        2.07834   0.00039  -0.00222   0.00395   0.00173   2.08007
   R20        2.80311  -0.00531  -0.00111  -0.01224  -0.01335   2.78976
   R21        2.07799   0.00043  -0.00218   0.00400   0.00182   2.07981
   R22        2.55832  -0.00670  -0.00345  -0.00580  -0.00925   2.54907
   R23        2.07985  -0.00016  -0.00254   0.00294   0.00041   2.08025
   R24        2.07450  -0.00132  -0.00230  -0.00030  -0.00260   2.07190
   R25        2.07313  -0.00020  -0.00201   0.00217   0.00015   2.07328
    A1        2.11899   0.00059  -0.00036   0.00379   0.00342   2.12241
    A2        2.12272   0.00028  -0.00279   0.00531   0.00252   2.12524
    A3        2.04148  -0.00086   0.00316  -0.00910  -0.00594   2.03554
    A4        2.16231  -0.00004  -0.00464   0.00601   0.00138   2.16369
    A5        2.08809   0.00055  -0.00119   0.00468   0.00349   2.09158
    A6        2.03278  -0.00051   0.00583  -0.01070  -0.00487   2.02791
    A7        2.16212  -0.00060  -0.00496   0.00415  -0.00081   2.16131
    A8        2.03249   0.00083   0.00471  -0.00212   0.00258   2.03508
    A9        2.08857  -0.00022   0.00025  -0.00203  -0.00178   2.08680
   A10        2.16269  -0.00050  -0.00497   0.00459  -0.00039   2.16230
   A11        2.08693  -0.00038   0.00033  -0.00291  -0.00259   2.08434
   A12        2.03357   0.00088   0.00465  -0.00167   0.00297   2.03655
   A13        2.16233  -0.00060  -0.00494   0.00414  -0.00080   2.16153
   A14        2.03358   0.00102   0.00463  -0.00093   0.00370   2.03728
   A15        2.08727  -0.00042   0.00031  -0.00321  -0.00290   2.08437
   A16        2.16251  -0.00058  -0.00496   0.00425  -0.00071   2.16180
   A17        2.08715  -0.00047   0.00032  -0.00346  -0.00314   2.08400
   A18        2.03353   0.00105   0.00464  -0.00079   0.00385   2.03738
   A19        2.16251  -0.00058  -0.00496   0.00426  -0.00071   2.16180
   A20        2.03353   0.00104   0.00464  -0.00079   0.00385   2.03738
   A21        2.08715  -0.00047   0.00032  -0.00346  -0.00314   2.08400
   A22        2.16233  -0.00060  -0.00494   0.00414  -0.00080   2.16154
   A23        2.08728  -0.00042   0.00031  -0.00321  -0.00290   2.08437
   A24        2.03357   0.00102   0.00463  -0.00093   0.00370   2.03728
   A25        2.16268  -0.00050  -0.00497   0.00459  -0.00038   2.16230
   A26        2.03358   0.00088   0.00465  -0.00168   0.00297   2.03655
   A27        2.08693  -0.00038   0.00033  -0.00292  -0.00259   2.08434
   A28        2.16212  -0.00060  -0.00496   0.00415  -0.00081   2.16131
   A29        2.08857  -0.00022   0.00025  -0.00203  -0.00178   2.08680
   A30        2.03249   0.00083   0.00471  -0.00212   0.00258   2.03508
   A31        2.16231  -0.00004  -0.00464   0.00601   0.00138   2.16369
   A32        2.03278  -0.00051   0.00583  -0.01069  -0.00487   2.02791
   A33        2.08809   0.00055  -0.00119   0.00468   0.00349   2.09158
   A34        2.12272   0.00028  -0.00279   0.00531   0.00252   2.12524
   A35        2.11898   0.00059  -0.00037   0.00379   0.00343   2.12241
   A36        2.04148  -0.00087   0.00316  -0.00910  -0.00595   2.03554
    D1        0.00000   0.00000   0.00000   0.00000   0.00000   0.00000
    D2        3.14159   0.00000   0.00000   0.00000   0.00000  -3.14159
    D3        3.14159   0.00000   0.00000   0.00000   0.00000  -3.14159
    D4        0.00000   0.00000   0.00000   0.00000   0.00000   0.00000
    D5        3.14159   0.00000   0.00000   0.00000   0.00000   3.14159
    D6        0.00000   0.00000   0.00000   0.00000   0.00000   0.00000
    D7       -0.00001   0.00000   0.00000   0.00001   0.00001   0.00000
    D8        3.14159   0.00000   0.00000   0.00000   0.00000   3.14159
    D9       -3.14159   0.00000   0.00000   0.00000   0.00000  -3.14159
   D10        0.00001   0.00000   0.00000  -0.00001  -0.00001   0.00000
   D11        0.00000   0.00000   0.00000   0.00000   0.00000   0.00000
   D12        3.14159   0.00000   0.00000   0.00000   0.00000  -3.14159
   D13        3.14158   0.00000   0.00000   0.00001   0.00001   3.14159
   D14        0.00000   0.00000   0.00000   0.00000   0.00000   0.00000
   D15       -0.00001   0.00000   0.00000   0.00001   0.00001   0.00000
   D16        3.14159   0.00000   0.00000   0.00000   0.00000   3.14159
   D17       -3.14159   0.00000   0.00000  -0.00001   0.00000  -3.14159
   D18        0.00001   0.00000   0.00000  -0.00001   0.00000   0.00000
   D19        0.00000   0.00000   0.00000   0.00000   0.00000   0.00000
   D20        3.14159   0.00000   0.00000   0.00000   0.00000  -3.14159
   D21        3.14158   0.00000   0.00000   0.00001   0.00001   3.14159
   D22        0.00000   0.00000   0.00000   0.00000   0.00000   0.00000
   D23       -0.00001   0.00000   0.00000   0.00001   0.00001   0.00000
   D24        3.14159   0.00000   0.00000   0.00000   0.00000   3.14159
   D25       -3.14159   0.00000   0.00000  -0.00001   0.00000  -3.14159
   D26        0.00000   0.00000   0.00000   0.00000   0.00000   0.00000
   D27        0.00000   0.00000   0.00000   0.00001   0.00001   0.00000
   D28        3.14159   0.00000   0.00000   0.00001   0.00001  -3.14159
   D29        3.14158   0.00000   0.00000   0.00001   0.00001   3.14159
   D30       -0.00001   0.00000   0.00000   0.00000   0.00000   0.00000
   D31       -0.00001   0.00000   0.00000   0.00001   0.00001   0.00000
   D32        3.14159   0.00000   0.00000   0.00000   0.00000   3.14159
   D33       -3.14159   0.00000   0.00000   0.00000   0.00000  -3.14159
   D34        0.00000   0.00000   0.00000   0.00000   0.00000   0.00000
   D35        0.00000   0.00000   0.00000   0.00000   0.00000   0.00000
   D36        3.14159   0.00000   0.00000   0.00000   0.00000  -3.14159
   D37        3.14159   0.00000   0.00000   0.00000   0.00000   3.14159
   D38        0.00000   0.00000   0.00000   0.00000   0.00000   0.00000
   D39        0.00000   0.00000   0.00000   0.00000   0.00000   0.00000
   D40        3.14159   0.00000   0.00000   0.00000   0.00000   3.14159
   D41       -3.14159   0.00000   0.00000   0.00000   0.00000  -3.14159
   D42        0.00000   0.00000   0.00000   0.00000   0.00000   0.00000
   D43        0.00000   0.00000   0.00000   0.00000   0.00000   0.00000
   D44       -3.14159   0.00000   0.00000   0.00000   0.00000   3.14159
         Item               Value     Threshold  Converged?
 Maximum Force            0.008383     0.000015     NO 
 RMS     Force            0.002265     0.000010     NO 
 Maximum Displacement     0.060269     0.000060     NO 
 RMS     Displacement     0.022401     0.000040     NO 
 Predicted change in Energy=-5.361831D-04
 GradGradGradGradGradGradGradGradGradGradGradGradGradGradGradGradGradGrad

                          Input orientation:                          
 ---------------------------------------------------------------------
 Center     Atomic      Atomic             Coordinates (Angstroms)
 Number     Number       Type             X           Y           Z
 ---------------------------------------------------------------------
      1          6           0        1.102403   -0.280935   -0.282851
      2          6           0        1.709669    0.538604   -1.165543
      3          6           0        3.171334    0.731360   -1.241574
      4          6           0        3.782719    1.561176   -2.135688
      5          6           0        5.234256    1.753554   -2.212296
      6          6           0        5.846146    2.585579   -3.108907
      7          6           0        7.295757    2.777961   -3.185715
      8          6           0        7.907644    3.609985   -4.082328
      9          6           0        9.359180    3.802365   -4.158942
     10          6           0        9.970558    4.632178   -5.053064
     11          6           0       11.432222    4.824938   -5.129107
     12          6           0       12.039479    5.644471   -6.011811
     13          1           0        1.675686   -0.865639    0.447333
     14          1           0        0.012422   -0.396817   -0.258219
     15          1           0        1.105885    1.111918   -1.885659
     16          1           0        3.781545    0.161352   -0.524620
     17          1           0        3.170188    2.130158   -2.851692
     18          1           0        5.847406    1.184946   -1.496658
     19          1           0        5.232646    3.154034   -3.824403
     20          1           0        7.909259    2.209509   -2.470217
     21          1           0        7.294492    4.178592   -4.797966
     22          1           0        9.971715    3.233389   -3.442938
     23          1           0        9.360340    5.202180   -5.770017
     24          1           0       12.036013    4.251632   -4.408990
     25          1           0       13.129458    5.760355   -6.036452
     26          1           0       11.466187    6.229166   -6.741995
 ---------------------------------------------------------------------
                    Distance matrix (angstroms):
[...]
    11  C    0.000000
    12  C    1.348610   0.000000
    13  H   12.602878  13.846250   0.000000
    14  H   13.469925  14.640049   1.864859   0.000000
    15  H   11.441307  12.534950   3.110054   2.473286   0.000000
    16  H   10.074537  11.331777   2.542978   3.823123   3.149022
    17  H    8.986720  10.055244   4.698355   4.799900   2.491196
    18  H    7.589202   8.865048   5.048158   6.176471   4.759226
    19  H    6.555793   7.577326   6.859793   7.246616   4.990055
    20  H    5.126442   6.430940   7.548949   8.610514   6.917330
    21  H    4.204323   5.118328   9.196357   9.722093   7.490885
    22  H    2.736286   4.080992  10.047807  11.072711   9.248438
    23  H    2.202617   2.729962  11.604553  12.211762   9.996137
    24  H    1.100395   2.122131  12.539000  13.542260  11.644984
    25  H    2.140045   1.096209  14.741966  15.601739  13.542260
    26  H    2.138957   1.096847  14.078077  14.741966  12.539000
                   16         17         18         19         20
    16  H    0.000000
    17  H    3.106226   0.000000
    18  H    2.505252   3.146502   0.000000
    19  H    4.682160   2.498875   3.107063   0.000000
    20  H    5.006088   4.758123   2.500839   3.145559   0.000000
    21  H    6.835258   4.999714   4.682044   2.500839   3.107063
    22  H    7.504963   6.919081   4.999714   4.758123   2.498875
    23  H    9.169108   7.504963   6.835258   5.006088   4.682160
    24  H    9.996137   9.248438   7.490885   6.917330   4.990055
    25  H   12.211762  11.072711   9.722093   8.610514   7.246616
    26  H   11.604553  10.047807   9.196357   7.548949   6.859793
                   21         22         23         24         25
    21  H    0.000000
    22  H    3.146502   0.000000
    23  H    2.505252   3.106226   0.000000
    24  H    4.759226   2.491196   3.149022   0.000000
    25  H    6.176471   4.799900   3.823123   2.473286   0.000000
    26  H    5.048158   4.698355   2.542978   3.110054   1.864859
                   26
    26  H    0.000000
 Stoichiometry    C12H14
 Framework group  C1[X(C12H14)]
 Deg. of freedom    72
 Full point group                 C1      NOp   1
 Largest Abelian subgroup         C1      NOp   1
 Largest concise Abelian subgroup C1      NOp   1
                         Standard orientation:                         
 ---------------------------------------------------------------------
 Center     Atomic      Atomic             Coordinates (Angstroms)
 Number     Number       Type             X           Y           Z
 ---------------------------------------------------------------------
      1          6           0       -6.845345    0.232481    0.000000
      2          6           0       -5.656218   -0.403701    0.000000
      3          6           0       -4.350302    0.284744    0.000000
      4          6           0       -3.149994   -0.364736    0.000000
      5          6           0       -1.851198    0.314415    0.000000
      6          6           0       -0.648674   -0.338623    0.000000
      7          6           0        0.648674    0.338624    0.000000
      8          6           0        1.851198   -0.314415    0.000000
      9          6           0        3.149994    0.364736    0.000000
     10          6           0        4.350302   -0.284744    0.000000
     11          6           0        5.656218    0.403701    0.000000
     12          6           0        6.845345   -0.232481    0.000000
     13          1           0       -6.912775    1.327254    0.000000
     14          1           0       -7.794466   -0.316011    0.000000
     15          1           0       -5.624984   -1.503652    0.000000
     16          1           0       -4.370445    1.384681    0.000000
     17          1           0       -3.134089   -1.464891    0.000000
     18          1           0       -1.865371    1.414488    0.000000
     19          1           0       -0.635351   -1.438737    0.000000
     20          1           0        0.635351    1.438737    0.000000
     21          1           0        1.865371   -1.414488    0.000000
     22          1           0        3.134089    1.464891    0.000000
     23          1           0        4.370445   -1.384681    0.000000
     24          1           0        5.624984    1.503652    0.000000
     25          1           0        7.794466    0.316011    0.000000
     26          1           0        6.912775   -1.327254    0.000000
 ---------------------------------------------------------------------
 Rotational constants (GHZ):     12.5798574      0.1670228      0.1648343

 **********************************************************************

            Population analysis using the SCF density.

 **********************************************************************

 Orbital symmetries:
       Occupied  (A) (A) (A) (A) (A) (A) (A) (A) (A) (A) (A) (A)
                 (A) (A) (A) (A) (A) (A) (A) (A) (A) (A) (A) (A)
                 (A) (A) (A) (A) (A) (A) (A) (A) (A) (A) (A) (A)
                 (A) (A) (A) (A) (A) (A) (A)
       Virtual   (A) (A) (A) (A) (A) (A) (A) (A) (A) (A) (A) (A)
                 (A) (A) (A) (A) (A) (A) (A) (A) (A) (A) (A) (A)
                 (A) (A) (A) (A) (A) (A) (A)
 The electronic state is 1-A.
 Alpha  occ. eigenvalues --  -10.00827 -10.00827 -10.00756 -10.00737 -10.00722
 Alpha  occ. eigenvalues --  -10.00667 -10.00642 -10.00625 -10.00568 -10.00567
 Alpha  occ. eigenvalues --   -9.99161  -9.99161  -0.77884  -0.76684  -0.74789
 Alpha  occ. eigenvalues --   -0.72244  -0.69127  -0.65672  -0.59034  -0.55049
 Alpha  occ. eigenvalues --   -0.52502  -0.51793  -0.51161  -0.50524  -0.44117
 Alpha  occ. eigenvalues --   -0.42918  -0.42010  -0.40407  -0.38143  -0.37215
 Alpha  occ. eigenvalues --   -0.34696  -0.34664  -0.32675  -0.32604  -0.31434
 Alpha  occ. eigenvalues --   -0.30363  -0.29772  -0.29367  -0.28108  -0.25430
 Alpha  occ. eigenvalues --   -0.21783  -0.17284  -0.12368
 Alpha virt. eigenvalues --    0.00598   0.06234   0.11882   0.16853   0.20706
 Alpha virt. eigenvalues --    0.23127   0.31142   0.34090   0.37581   0.40310
 Alpha virt. eigenvalues --    0.40908   0.42032   0.42301   0.42814   0.42819
 Alpha virt. eigenvalues --    0.43131   0.43203   0.43364   0.43863   0.52632
 Alpha virt. eigenvalues --    0.53078   0.56599   0.58568   0.62209   0.63554
 Alpha virt. eigenvalues --    0.66799   0.68355   0.70524   0.73845   0.76457
 Alpha virt. eigenvalues --    0.77705
          Condensed to atoms (all electrons):
               1          2          3          4          5          6
     1  C    4.856341   0.579597  -0.027597   0.000686  -0.000006   0.000000
     2  C    0.579597   4.790049   0.426219  -0.026674   0.000812  -0.000006
     3  C   -0.027597   0.426219   4.818678   0.558295  -0.026969   0.000695
     4  C    0.000686  -0.026674   0.558295   4.809220   0.436889  -0.026933
     5  C   -0.000006   0.000812  -0.026969   0.436889   4.813451   0.553168
     6  C    0.000000  -0.000006   0.000695  -0.026933   0.553168   4.811667
     7  C    0.000000   0.000000  -0.000006   0.000815  -0.026993   0.439101
     8  C    0.000000   0.000000   0.000000  -0.000006   0.000699  -0.026993
     9  C    0.000000   0.000000   0.000000   0.000000  -0.000006   0.000815
    10  C    0.000000   0.000000   0.000000   0.000000   0.000000  -0.000006
    11  C    0.000000   0.000000   0.000000   0.000000   0.000000   0.000000
    12  C    0.000000   0.000000   0.000000   0.000000   0.000000   0.000000
    13  H    0.386162  -0.024409  -0.004211   0.000025  -0.000001   0.000000
    14  H    0.388066  -0.023832   0.001413  -0.000019   0.000000   0.000000
    15  H   -0.026788   0.385307  -0.025313  -0.003232   0.000003   0.000000
    16  H   -0.003079  -0.024620   0.384229  -0.026615  -0.004162   0.000024
    17  H    0.000027  -0.004220  -0.026731   0.384332  -0.024960  -0.003283
    18  H    0.000000   0.000004  -0.003260  -0.024888   0.384352  -0.026603
    19  H    0.000000  -0.000001   0.000025  -0.004173  -0.026629   0.384369
    20  H    0.000000   0.000000   0.000000   0.000005  -0.003293  -0.024961
    21  H    0.000000   0.000000   0.000000  -0.000001   0.000024  -0.004162
    22  H    0.000000   0.000000   0.000000   0.000000   0.000000   0.000005
    23  H    0.000000   0.000000   0.000000   0.000000   0.000000  -0.000001
    24  H    0.000000   0.000000   0.000000   0.000000   0.000000   0.000000
    25  H    0.000000   0.000000   0.000000   0.000000   0.000000   0.000000
    26  H    0.000000   0.000000   0.000000   0.000000   0.000000   0.000000
               7          8          9         10         11         12
     1  C    0.000000   0.000000   0.000000   0.000000   0.000000   0.000000
     2  C    0.000000   0.000000   0.000000   0.000000   0.000000   0.000000
     3  C   -0.000006   0.000000   0.000000   0.000000   0.000000   0.000000
     4  C    0.000815  -0.000006   0.000000   0.000000   0.000000   0.000000
     5  C   -0.026993   0.000699  -0.000006   0.000000   0.000000   0.000000
     6  C    0.439101  -0.026993   0.000815  -0.000006   0.000000   0.000000
     7  C    4.811667   0.553168  -0.026933   0.000695  -0.000006   0.000000
     8  C    0.553168   4.813451   0.436889  -0.026969   0.000812  -0.000006
     9  C   -0.026933   0.436889   4.809220   0.558295  -0.026674   0.000686
    10  C    0.000695  -0.026969   0.558295   4.818678   0.426219  -0.027597
    11  C   -0.000006   0.000812  -0.026674   0.426219   4.790049   0.579597
    12  C    0.000000  -0.000006   0.000686  -0.027597   0.579597   4.856341
    13  H    0.000000   0.000000   0.000000   0.000000   0.000000   0.000000
    14  H    0.000000   0.000000   0.000000   0.000000   0.000000   0.000000
    15  H    0.000000   0.000000   0.000000   0.000000   0.000000   0.000000
    16  H   -0.000001   0.000000   0.000000   0.000000   0.000000   0.000000
    17  H    0.000005   0.000000   0.000000   0.000000   0.000000   0.000000
    18  H   -0.004162   0.000024  -0.000001   0.000000   0.000000   0.000000
    19  H   -0.024961  -0.003293   0.000005   0.000000   0.000000   0.000000
    20  H    0.384369  -0.026629  -0.004173   0.000025  -0.000001   0.000000
    21  H   -0.026603   0.384352  -0.024888  -0.003260   0.000004   0.000000
    22  H   -0.003283  -0.024960   0.384332  -0.026731  -0.004220   0.000027
    23  H    0.000024  -0.004162  -0.026615   0.384229  -0.024620  -0.003079
    24  H    0.000000   0.000003  -0.003232  -0.025313   0.385307  -0.026788
    25  H    0.000000   0.000000  -0.000019   0.001413  -0.023832   0.388066
    26  H    0.000000  -0.000001   0.000025  -0.004211  -0.024409   0.386162
              13         14         15         16         17         18
     1  C    0.386162   0.388066  -0.026788  -0.003079   0.000027   0.000000
     2  C   -0.024409  -0.023832   0.385307  -0.024620  -0.004220   0.000004
     3  C   -0.004211   0.001413  -0.025313   0.384229  -0.026731  -0.003260
     4  C    0.000025  -0.000019  -0.003232  -0.026615   0.384332  -0.024888
     5  C   -0.000001   0.000000   0.000003  -0.004162  -0.024960   0.384352
     6  C    0.000000   0.000000   0.000000   0.000024  -0.003283  -0.026603
     7  C    0.000000   0.000000   0.000000  -0.000001   0.000005  -0.004162
     8  C    0.000000   0.000000   0.000000   0.000000   0.000000   0.000024
     9  C    0.000000   0.000000   0.000000   0.000000   0.000000  -0.000001
    10  C    0.000000   0.000000   0.000000   0.000000   0.000000   0.000000
    11  C    0.000000   0.000000   0.000000   0.000000   0.000000   0.000000
    12  C    0.000000   0.000000   0.000000   0.000000   0.000000   0.000000
    13  H    0.586659  -0.023569   0.002005   0.000954   0.000001   0.000000
    14  H   -0.023569   0.584177  -0.004629   0.000000  -0.000001   0.000000
    15  H    0.002005  -0.004629   0.592551   0.001554   0.001015   0.000000
    16  H    0.000954   0.000000   0.001554   0.592405   0.001971   0.000975
    17  H    0.000001  -0.000001   0.001015   0.001971   0.592813   0.001580
    18  H    0.000000   0.000000   0.000000   0.000975   0.001580   0.592544
    19  H    0.000000   0.000000   0.000000   0.000001   0.000984   0.001959
    20  H    0.000000   0.000000   0.000000   0.000000   0.000000   0.000981
    21  H    0.000000   0.000000   0.000000   0.000000   0.000000   0.000001
    22  H    0.000000   0.000000   0.000000   0.000000   0.000000   0.000000
    23  H    0.000000   0.000000   0.000000   0.000000   0.000000   0.000000
    24  H    0.000000   0.000000   0.000000   0.000000   0.000000   0.000000
    25  H    0.000000   0.000000   0.000000   0.000000   0.000000   0.000000
    26  H    0.000000   0.000000   0.000000   0.000000   0.000000   0.000000
              19         20         21         22         23         24
     1  C    0.000000   0.000000   0.000000   0.000000   0.000000   0.000000
     2  C   -0.000001   0.000000   0.000000   0.000000   0.000000   0.000000
     3  C    0.000025   0.000000   0.000000   0.000000   0.000000   0.000000
     4  C   -0.004173   0.000005  -0.000001   0.000000   0.000000   0.000000
     5  C   -0.026629  -0.003293   0.000024   0.000000   0.000000   0.000000
     6  C    0.384369  -0.024961  -0.004162   0.000005  -0.000001   0.000000
     7  C   -0.024961   0.384369  -0.026603  -0.003283   0.000024   0.000000
     8  C   -0.003293  -0.026629   0.384352  -0.024960  -0.004162   0.000003
     9  C    0.000005  -0.004173  -0.024888   0.384332  -0.026615  -0.003232
    10  C    0.000000   0.000025  -0.003260  -0.026731   0.384229  -0.025313
    11  C    0.000000  -0.000001   0.000004  -0.004220  -0.024620   0.385307
    12  C    0.000000   0.000000   0.000000   0.000027  -0.003079  -0.026788
    13  H    0.000000   0.000000   0.000000   0.000000   0.000000   0.000000
    14  H    0.000000   0.000000   0.000000   0.000000   0.000000   0.000000
    15  H    0.000000   0.000000   0.000000   0.000000   0.000000   0.000000
    16  H    0.000001   0.000000   0.000000   0.000000   0.000000   0.000000
    17  H    0.000984   0.000000   0.000000   0.000000   0.000000   0.000000
    18  H    0.001959   0.000981   0.000001   0.000000   0.000000   0.000000
    19  H    0.592671   0.001587   0.000981   0.000000   0.000000   0.000000
    20  H    0.001587   0.592671   0.001959   0.000984   0.000001   0.000000
    21  H    0.000981   0.001959   0.592544   0.001580   0.000975   0.000000
    22  H    0.000000   0.000984   0.001580   0.592813   0.001971   0.001015
    23  H    0.000000   0.000001   0.000975   0.001971   0.592405   0.001554
    24  H    0.000000   0.000000   0.000000   0.001015   0.001554   0.592551
    25  H    0.000000   0.000000   0.000000  -0.000001   0.000000  -0.004629
    26  H    0.000000   0.000000   0.000000   0.000001   0.000954   0.002005
              25         26
     1  C    0.000000   0.000000
     2  C    0.000000   0.000000
     3  C    0.000000   0.000000
     4  C    0.000000   0.000000
     5  C    0.000000   0.000000
     6  C    0.000000   0.000000
     7  C    0.000000   0.000000
     8  C    0.000000  -0.000001
     9  C   -0.000019   0.000025
    10  C    0.001413  -0.004211
    11  C   -0.023832  -0.024409
    12  C    0.388066   0.386162
    13  H    0.000000   0.000000
    14  H    0.000000   0.000000
    15  H    0.000000   0.000000
    16  H    0.000000   0.000000
    17  H    0.000000   0.000000
    18  H    0.000000   0.000000
    19  H    0.000000   0.000000
    20  H    0.000000   0.000000
    21  H    0.000000   0.000000
    22  H   -0.000001   0.000001
    23  H    0.000000   0.000954
    24  H   -0.004629   0.002005
    25  H    0.584177  -0.023569
    26  H   -0.023569   0.586659
 Mulliken charges:
               1
     1  C   -0.153409
     2  C   -0.078225
     3  C   -0.075466
     4  C   -0.077728
     5  C   -0.076381
     6  C   -0.076897
     7  C   -0.076897
     8  C   -0.076381
     9  C   -0.077728
    10  C   -0.075466
    11  C   -0.078225
    12  C   -0.153409
    13  H    0.076384
    14  H    0.078393
    15  H    0.077527
    16  H    0.076364
    17  H    0.076469
    18  H    0.076495
    19  H    0.076475
    20  H    0.076475
    21  H    0.076495
    22  H    0.076469
    23  H    0.076364
    24  H    0.077527
    25  H    0.078393
    26  H    0.076384
 Sum of Mulliken charges =   0.00000
 Mulliken charges with hydrogens summed into heavy atoms:
               1
     1  C    0.001368
     2  C   -0.000698
     3  C    0.000898
     4  C   -0.001260
     5  C    0.000114
     6  C   -0.000422
     7  C   -0.000422
     8  C    0.000114
     9  C   -0.001260
    10  C    0.000898
    11  C   -0.000698
    12  C    0.001368
 Electronic spatial extent (au):  <R**2>=           6276.5776
 Charge=              0.0000 electrons
 Dipole moment (field-independent basis, Debye):
    X=              0.0000    Y=              0.0000    Z=              0.0000  Tot=              0.0000
 Quadrupole moment (field-independent basis, Debye-Ang):
   XX=            -62.3851   YY=            -61.6414   ZZ=            -72.1139
   XY=             -0.1478   XZ=              0.0000   YZ=              0.0000
 Traceless Quadrupole moment (field-independent basis, Debye-Ang):
   XX=              2.9950   YY=              3.7387   ZZ=             -6.7337
   XY=             -0.1478   XZ=              0.0000   YZ=              0.0000
 Octapole moment (field-independent basis, Debye-Ang**2):
  XXX=              0.0000  YYY=              0.0000  ZZZ=              0.0000  XYY=              0.0000
  XXY=              0.0000  XXZ=              0.0000  XZZ=              0.0000  YZZ=              0.0000
  YYZ=              0.0000  XYZ=              0.0000
 Hexadecapole moment (field-independent basis, Debye-Ang**3):
 XXXX=          -7397.1722 YYYY=           -177.0492 ZZZZ=            -58.5055 XXXY=             15.7231
 XXXZ=              0.0000 YYYX=             -4.2877 YYYZ=              0.0000 ZZZX=              0.0000
 ZZZY=              0.0000 XXYY=          -1256.2041 XXZZ=          -1433.0508 YYZZ=            -45.3292
 XXYZ=              0.0000 YYXZ=              0.0000 ZZXY=             -0.2745
 N-N= 5.273425299928D+02 E-N=-2.118720126499D+03  KE= 4.523363996780D+02
 1\1\GINC-PC-AVL46\FOpt\RB3LYP\STO-3G\C12H14\BING\28-Jan-2019\0\\# opt(
 tight) b3lyp/sto-3g\\c12h14\\0,1\C,1.0993910829,-0.2804334153,-0.28371
 57427\C,1.7099603532,0.5379412752,-1.1647479483\C,3.1718650242,0.72939
 54985,-1.239260637\C,3.7840014995,1.5591957111,-2.1332872389\C,5.23477
 51064,1.75243181,-2.2109612921\C,5.8466957896,2.5849671489,-3.10815752
 97\C,7.2951973565,2.7785718798,-3.1864825565\C,7.907118022,3.611107254
 5,-4.0836787717\C,9.3578916173,3.8043434252,-4.1613528036\C,9.97002804
 83,4.6341437113,-5.0553793667\C,11.4319327018,4.8255980817,-5.12989199
 91\C,12.042501914,5.6439728528,-6.0109241705\H,1.6687735107,-0.8666772
 31,0.447855299\H,0.0094347959,-0.3950326824,-0.26055466\H,1.107990388,
 1.1117895483,-1.8853030227\H,3.7829073441,0.1601620543,-0.5231120868\H
 ,3.1693655394,2.1267802318,-2.8478963496\H,5.8507827043,1.1856091271,-
 1.4970921832\H,5.2299694699,3.1514573208,-3.8217155996\H,7.9119236776,
 2.2120817395,-2.472924463\H,7.2911104049,4.1779299634,-4.7975478443\H,
 9.9725276037,3.2367589262,-3.4467436975\H,9.3589856937,5.2033771874,-5
 .7715278629\H,12.0339027098,4.2517497893,-4.4093369758\H,13.1324581964
 ,5.758572156,-6.0340852894\H,11.4731194469,6.2302166257,-6.7424952163\
 \Version=ES64L-G09RevD.01\State=1-A\HF=-459.9023974\RMSD=7.533e-09\RMS
 F=8.480e-07\Dipole=0.,0.0000001,0.0000001\Quadrupole=2.2731853,-1.6871
 899,-0.5859954,0.2147406,0.4790986,-3.7989489\PG=C01 [X(C12H14)]\\@


 Not by the face shall a man be known, but by the mask.
                               -- Karen Blixen
 Job cpu time:       0 days  0 hours  2 minutes 33.5 seconds.
 File lengths (MBytes):  RWF=      5 Int=      0 D2E=      0 Chk=      2 Scr=      1
 Normal termination of Gaussian 09 at Mon Jan 28 19:29:47 2019.
