 Entering Gaussian System, Link 0=g09
 Input=c14h30.com
 Output=c14h30.out
 Initial command:
 /apps/g09_d.01/g09/l1.exe "/data/scratch/Gau-51432.inp" -scrdir="/data/scratch/"
 Entering Link 1 = /apps/g09_d.01/g09/l1.exe PID=     51446.
  
 Copyright (c) 1988,1990,1992,1993,1995,1998,2003,2009,2013,
            Gaussian, Inc.  All Rights Reserved.
  
 This is part of the Gaussian(R) 09 program.  It is based on
 the Gaussian(R) 03 system (copyright 2003, Gaussian, Inc.),
 the Gaussian(R) 98 system (copyright 1998, Gaussian, Inc.),
 the Gaussian(R) 94 system (copyright 1995, Gaussian, Inc.),
 the Gaussian 92(TM) system (copyright 1992, Gaussian, Inc.),
 the Gaussian 90(TM) system (copyright 1990, Gaussian, Inc.),
 the Gaussian 88(TM) system (copyright 1988, Gaussian, Inc.),
 the Gaussian 86(TM) system (copyright 1986, Carnegie Mellon
 University), and the Gaussian 82(TM) system (copyright 1983,
 Carnegie Mellon University). Gaussian is a federally registered
 trademark of Gaussian, Inc.
  
 This software contains proprietary and confidential information,
 including trade secrets, belonging to Gaussian, Inc.
  
 This software is provided under written license and may be
 used, copied, transmitted, or stored only in accord with that
 written license.
  
 The following legend is applicable only to US Government
 contracts under FAR:
  
                    RESTRICTED RIGHTS LEGEND
  
 Use, reproduction and disclosure by the US Government is
 subject to restrictions as set forth in subparagraphs (a)
 and (c) of the Commercial Computer Software - Restricted
 Rights clause in FAR 52.227-19.
  
 Gaussian, Inc.
 340 Quinnipiac St., Bldg. 40, Wallingford CT 06492
  
  
 ---------------------------------------------------------------
 Warning -- This program may not be used in any manner that
 competes with the business of Gaussian, Inc. or will provide
 assistance to any competitor of Gaussian, Inc.  The licensee
 of this program is prohibited from giving any competitor of
 Gaussian, Inc. access to this program.  By using this program,
 the user acknowledges that Gaussian, Inc. is engaged in the
 business of creating and licensing software in the field of
 computational chemistry and represents and warrants to the
 licensee that it is not a competitor of Gaussian, Inc. and that
 it will not use this program in any manner prohibited above.
 ---------------------------------------------------------------
  

 Cite this work as:
 Gaussian 09, Revision D.01,
 M. J. Frisch, G. W. Trucks, H. B. Schlegel, G. E. Scuseria, 
 M. A. Robb, J. R. Cheeseman, G. Scalmani, V. Barone, B. Mennucci, 
 G. A. Petersson, H. Nakatsuji, M. Caricato, X. Li, H. P. Hratchian, 
 A. F. Izmaylov, J. Bloino, G. Zheng, J. L. Sonnenberg, M. Hada, 
 M. Ehara, K. Toyota, R. Fukuda, J. Hasegawa, M. Ishida, T. Nakajima, 
 Y. Honda, O. Kitao, H. Nakai, T. Vreven, J. A. Montgomery, Jr., 
 J. E. Peralta, F. Ogliaro, M. Bearpark, J. J. Heyd, E. Brothers, 
 K. N. Kudin, V. N. Staroverov, T. Keith, R. Kobayashi, J. Normand, 
 K. Raghavachari, A. Rendell, J. C. Burant, S. S. Iyengar, J. Tomasi, 
 M. Cossi, N. Rega, J. M. Millam, M. Klene, J. E. Knox, J. B. Cross, 
 V. Bakken, C. Adamo, J. Jaramillo, R. Gomperts, R. E. Stratmann, 
 O. Yazyev, A. J. Austin, R. Cammi, C. Pomelli, J. W. Ochterski, 
 R. L. Martin, K. Morokuma, V. G. Zakrzewski, G. A. Voth, 
 P. Salvador, J. J. Dannenberg, S. Dapprich, A. D. Daniels, 
 O. Farkas, J. B. Foresman, J. V. Ortiz, J. Cioslowski, 
 and D. J. Fox, Gaussian, Inc., Wallingford CT, 2013.
 
 ******************************************
 Gaussian 09:  ES64L-G09RevD.01 24-Apr-2013
                28-Jan-2019 
 ******************************************
 %nproc=6
 Will use up to    6 processors via shared memory.
 -------------------------
 # opt(tight) b3lyp/sto-3g
 -------------------------
 1/7=10,14=-1,18=20,19=15,26=3,38=1/1,3;
 2/9=110,12=2,17=6,18=5,40=1/2;
 3/6=3,11=2,16=1,25=1,30=1,71=1,74=-5/1,2,3;
 4//1;
 5/5=2,38=5/2;
 6/7=2,8=2,9=2,10=2,28=1/1;
 7//1,2,3,16;
 1/7=10,14=-1,18=20,19=15,26=3/3(2);
 2/9=110/2;
 99//99;
 2/9=110/2;
 3/6=3,11=2,16=1,25=1,30=1,71=1,74=-5/1,2,3;
 4/5=5,16=3,69=1/1;
 5/5=2,38=5/2;
 7//1,2,3,16;
 1/7=10,14=-1,18=20,19=15,26=3/3(-5);
 2/9=110/2;
 6/7=2,8=2,9=2,10=2,19=2,28=1/1;
 99/9=1/99;
 ------
 c14h30
 ------
 Symbolic Z-matrix:
 Charge =  0 Multiplicity = 1
 C                     0.18637  -1.25599  -2.42898 
 C                     0.59298  -2.59639  -1.83776 
 C                     1.84298  -2.46897  -0.96724 
 C                     2.24911  -3.82001  -0.37605 
 C                     3.50049  -3.69395   0.49477 
 C                     3.90737  -5.04643   1.08228 
 C                     5.15976  -4.92294   1.952 
 C                     5.56758  -6.27748   2.53419 
 C                     6.82134  -6.15721   3.40232 
 C                     7.23014  -7.51393   3.97879 
 C                     8.48515  -7.39655   4.84544 
 C                     8.89478  -8.75489   5.41741 
 C                     10.14949  -8.63917   6.28262 
 C                     10.56051  -9.98815   6.85101 
 H                    -0.70935  -1.37061  -3.04746 
 H                     0.98332  -0.84665  -3.05798 
 H                    -0.03611  -0.53043  -1.64007 
 H                     0.77675  -3.30728  -2.65174 
 H                    -0.23716  -2.99306  -1.24173 
 H                     1.65489  -1.75455  -0.15654 
 H                     2.66879  -2.06708  -1.56691 
 H                     2.43662  -4.53409  -1.18718 
 H                     1.42328  -4.22159   0.22376 
 H                     3.31246  -2.98179   1.30742 
 H                     4.32583  -3.29054  -0.10444 
 H                     4.09393  -5.75848   0.26915 
 H                     3.08221  -5.44952   1.68199 
 H                     4.97254  -4.21368   2.76738 
 H                     5.98429  -4.51727   1.35321 
 H                     5.75287  -6.98668   1.71826 
 H                     4.74336  -6.68268   3.13375 
 H                     6.63539  -5.45102   4.22065 
 H                     7.64492  -5.74928   2.80377 
 H                     7.41435  -8.22009   3.15998 
 H                     6.40688  -7.92146   4.57808 
 H                     8.30043  -6.69278   5.66616 
 H                     9.30793  -6.98688   4.24698 
 H                     9.07851  -9.45882   4.59653 
 H                     8.07223  -9.16467   6.0162 
 H                     9.96958  -7.94085   7.10826 
 H                     10.97593  -8.23282   5.68802 
 H                     9.76733  -10.40796   7.47787 
 H                     11.4595  -9.8823    7.46626 
 H                     10.7793  -10.70127   6.04978 
 

 GradGradGradGradGradGradGradGradGradGradGradGradGradGradGradGradGradGrad
 Berny optimization.
 Initialization pass.
                           ----------------------------
                           !    Initial Parameters    !
                           ! (Angstroms and Degrees)  !
 --------------------------                            --------------------------
 ! Name  Definition              Value          Derivative Info.                !
 --------------------------------------------------------------------------------
 ! R1    R(1,2)                  1.5204         estimate D2E/DX2                !
 ! R2    R(1,15)                 1.0945         estimate D2E/DX2                !
 ! R3    R(1,16)                 1.0947         estimate D2E/DX2                !
 ! R4    R(1,17)                 1.0947         estimate D2E/DX2                !
 ! R5    R(2,3)                  1.5286         estimate D2E/DX2                !
 ! R6    R(2,18)                 1.0962         estimate D2E/DX2                !
 ! R7    R(2,19)                 1.0962         estimate D2E/DX2                !
 ! R8    R(3,4)                  1.5296         estimate D2E/DX2                !
 ! R9    R(3,20)                 1.0968         estimate D2E/DX2                !
 ! R10   R(3,21)                 1.0969         estimate D2E/DX2                !
 ! R11   R(4,5)                  1.5298         estimate D2E/DX2                !
 ! R12   R(4,22)                 1.0968         estimate D2E/DX2                !
 ! R13   R(4,23)                 1.0968         estimate D2E/DX2                !
 ! R14   R(5,6)                  1.5297         estimate D2E/DX2                !
 ! R15   R(5,24)                 1.0968         estimate D2E/DX2                !
 ! R16   R(5,25)                 1.0968         estimate D2E/DX2                !
 ! R17   R(6,7)                  1.5298         estimate D2E/DX2                !
 ! R18   R(6,26)                 1.0968         estimate D2E/DX2                !
 ! R19   R(6,27)                 1.0968         estimate D2E/DX2                !
 ! R20   R(7,8)                  1.5297         estimate D2E/DX2                !
 ! R21   R(7,28)                 1.0968         estimate D2E/DX2                !
 ! R22   R(7,29)                 1.0968         estimate D2E/DX2                !
 ! R23   R(8,9)                  1.5297         estimate D2E/DX2                !
 ! R24   R(8,30)                 1.0968         estimate D2E/DX2                !
 ! R25   R(8,31)                 1.0968         estimate D2E/DX2                !
 ! R26   R(9,10)                 1.5297         estimate D2E/DX2                !
 ! R27   R(9,32)                 1.0968         estimate D2E/DX2                !
 ! R28   R(9,33)                 1.0968         estimate D2E/DX2                !
 ! R29   R(10,11)                1.5297         estimate D2E/DX2                !
 ! R30   R(10,34)                1.0968         estimate D2E/DX2                !
 ! R31   R(10,35)                1.0968         estimate D2E/DX2                !
 ! R32   R(11,12)                1.5297         estimate D2E/DX2                !
 ! R33   R(11,36)                1.0968         estimate D2E/DX2                !
 ! R34   R(11,37)                1.0968         estimate D2E/DX2                !
 ! R35   R(12,13)                1.5285         estimate D2E/DX2                !
 ! R36   R(12,38)                1.0969         estimate D2E/DX2                !
 ! R37   R(12,39)                1.0968         estimate D2E/DX2                !
 ! R38   R(13,14)                1.5204         estimate D2E/DX2                !
 ! R39   R(13,40)                1.0962         estimate D2E/DX2                !
 ! R40   R(13,41)                1.0962         estimate D2E/DX2                !
 ! R41   R(14,42)                1.0947         estimate D2E/DX2                !
 ! R42   R(14,43)                1.0945         estimate D2E/DX2                !
 ! R43   R(14,44)                1.0947         estimate D2E/DX2                !
 ! A1    A(2,1,15)             110.2597         estimate D2E/DX2                !
 ! A2    A(2,1,16)             111.0025         estimate D2E/DX2                !
 ! A3    A(2,1,17)             111.0054         estimate D2E/DX2                !
 ! A4    A(15,1,16)            108.0749         estimate D2E/DX2                !
 ! A5    A(15,1,17)            108.0786         estimate D2E/DX2                !
 ! A6    A(16,1,17)            108.3134         estimate D2E/DX2                !
 ! A7    A(1,2,3)              111.5102         estimate D2E/DX2                !
 ! A8    A(1,2,18)             109.1362         estimate D2E/DX2                !
 ! A9    A(1,2,19)             109.1425         estimate D2E/DX2                !
 ! A10   A(3,2,18)             109.8671         estimate D2E/DX2                !
 ! A11   A(3,2,19)             109.8635         estimate D2E/DX2                !
 ! A12   A(18,2,19)            107.2183         estimate D2E/DX2                !
 ! A13   A(2,3,4)              111.3216         estimate D2E/DX2                !
 ! A14   A(2,3,20)             109.5725         estimate D2E/DX2                !
 ! A15   A(2,3,21)             109.5645         estimate D2E/DX2                !
 ! A16   A(4,3,20)             109.5829         estimate D2E/DX2                !
 ! A17   A(4,3,21)             109.5743         estimate D2E/DX2                !
 ! A18   A(20,3,21)            107.1307         estimate D2E/DX2                !
 ! A19   A(3,4,5)              111.3719         estimate D2E/DX2                !
 ! A20   A(3,4,22)             109.5485         estimate D2E/DX2                !
 ! A21   A(3,4,23)             109.5622         estimate D2E/DX2                !
 ! A22   A(5,4,22)             109.5593         estimate D2E/DX2                !
 ! A23   A(5,4,23)             109.5592         estimate D2E/DX2                !
 ! A24   A(22,4,23)            107.1438         estimate D2E/DX2                !
 ! A25   A(4,5,6)              111.3068         estimate D2E/DX2                !
 ! A26   A(4,5,24)             109.5755         estimate D2E/DX2                !
 ! A27   A(4,5,25)             109.5647         estimate D2E/DX2                !
 ! A28   A(6,5,24)             109.5802         estimate D2E/DX2                !
 ! A29   A(6,5,25)             109.5646         estimate D2E/DX2                !
 ! A30   A(24,5,25)            107.1562         estimate D2E/DX2                !
 ! A31   A(5,6,7)              111.3921         estimate D2E/DX2                !
 ! A32   A(5,6,26)             109.5423         estimate D2E/DX2                !
 ! A33   A(5,6,27)             109.5619         estimate D2E/DX2                !
 ! A34   A(7,6,26)             109.5508         estimate D2E/DX2                !
 ! A35   A(7,6,27)             109.5556         estimate D2E/DX2                !
 ! A36   A(26,6,27)            107.1414         estimate D2E/DX2                !
 ! A37   A(6,7,8)              111.2942         estimate D2E/DX2                !
 ! A38   A(6,7,28)             109.5797         estimate D2E/DX2                !
 ! A39   A(6,7,29)             109.5681         estimate D2E/DX2                !
 ! A40   A(8,7,28)             109.5838         estimate D2E/DX2                !
 ! A41   A(8,7,29)             109.5647         estimate D2E/DX2                !
 ! A42   A(28,7,29)            107.1581         estimate D2E/DX2                !
 ! A43   A(7,8,9)              111.3997         estimate D2E/DX2                !
 ! A44   A(7,8,30)             109.54           estimate D2E/DX2                !
 ! A45   A(7,8,31)             109.5622         estimate D2E/DX2                !
 ! A46   A(9,8,30)             109.5451         estimate D2E/DX2                !
 ! A47   A(9,8,31)             109.556          estimate D2E/DX2                !
 ! A48   A(30,8,31)            107.1406         estimate D2E/DX2                !
 ! A49   A(8,9,10)             111.2942         estimate D2E/DX2                !
 ! A50   A(8,9,32)             109.5783         estimate D2E/DX2                !
 ! A51   A(8,9,33)             109.571          estimate D2E/DX2                !
 ! A52   A(10,9,32)            109.5838         estimate D2E/DX2                !
 ! A53   A(10,9,33)            109.5633         estimate D2E/DX2                !
 ! A54   A(32,9,33)            107.158          estimate D2E/DX2                !
 ! A55   A(9,10,11)            111.3889         estimate D2E/DX2                !
 ! A56   A(9,10,34)            109.5456         estimate D2E/DX2                !
 ! A57   A(9,10,35)            109.5636         estimate D2E/DX2                !
 ! A58   A(11,10,34)           109.5458         estimate D2E/DX2                !
 ! A59   A(11,10,35)           109.5584         estimate D2E/DX2                !
 ! A60   A(34,10,35)           107.1419         estimate D2E/DX2                !
 ! A61   A(10,11,12)           111.3091         estimate D2E/DX2                !
 ! A62   A(10,11,36)           109.5728         estimate D2E/DX2                !
 ! A63   A(10,11,37)           109.5721         estimate D2E/DX2                !
 ! A64   A(12,11,36)           109.5773         estimate D2E/DX2                !
 ! A65   A(12,11,37)           109.561          estimate D2E/DX2                !
 ! A66   A(36,11,37)           107.1556         estimate D2E/DX2                !
 ! A67   A(11,12,13)           111.3609         estimate D2E/DX2                !
 ! A68   A(11,12,38)           109.5661         estimate D2E/DX2                !
 ! A69   A(11,12,39)           109.5757         estimate D2E/DX2                !
 ! A70   A(13,12,38)           109.5551         estimate D2E/DX2                !
 ! A71   A(13,12,39)           109.5643         estimate D2E/DX2                !
 ! A72   A(38,12,39)           107.1224         estimate D2E/DX2                !
 ! A73   A(12,13,14)           111.4905         estimate D2E/DX2                !
 ! A74   A(12,13,40)           109.8673         estimate D2E/DX2                !
 ! A75   A(12,13,41)           109.8706         estimate D2E/DX2                !
 ! A76   A(14,13,40)           109.147          estimate D2E/DX2                !
 ! A77   A(14,13,41)           109.1385         estimate D2E/DX2                !
 ! A78   A(40,13,41)           107.2249         estimate D2E/DX2                !
 ! A79   A(13,14,42)           111.005          estimate D2E/DX2                !
 ! A80   A(13,14,43)           110.266          estimate D2E/DX2                !
 ! A81   A(13,14,44)           111.0007         estimate D2E/DX2                !
 ! A82   A(42,14,43)           108.0795         estimate D2E/DX2                !
 ! A83   A(42,14,44)           108.3076         estimate D2E/DX2                !
 ! A84   A(43,14,44)           108.0755         estimate D2E/DX2                !
 ! D1    D(15,1,2,3)          -179.9948         estimate D2E/DX2                !
 ! D2    D(15,1,2,18)           58.4446         estimate D2E/DX2                !
 ! D3    D(15,1,2,19)          -58.4345         estimate D2E/DX2                !
 ! D4    D(16,1,2,3)            60.2719         estimate D2E/DX2                !
 ! D5    D(16,1,2,18)          -61.2887         estimate D2E/DX2                !
 ! D6    D(16,1,2,19)         -178.1678         estimate D2E/DX2                !
 ! D7    D(17,1,2,3)           -60.2551         estimate D2E/DX2                !
 ! D8    D(17,1,2,18)          178.1843         estimate D2E/DX2                !
 ! D9    D(17,1,2,19)           61.3052         estimate D2E/DX2                !
 ! D10   D(1,2,3,4)           -179.9339         estimate D2E/DX2                !
 ! D11   D(1,2,3,20)            58.6912         estimate D2E/DX2                !
 ! D12   D(1,2,3,21)           -58.5752         estimate D2E/DX2                !
 ! D13   D(18,2,3,4)           -58.7983         estimate D2E/DX2                !
 ! D14   D(18,2,3,20)          179.8268         estimate D2E/DX2                !
 ! D15   D(18,2,3,21)           62.5605         estimate D2E/DX2                !
 ! D16   D(19,2,3,4)            58.9249         estimate D2E/DX2                !
 ! D17   D(19,2,3,20)          -62.45           estimate D2E/DX2                !
 ! D18   D(19,2,3,21)         -179.7163         estimate D2E/DX2                !
 ! D19   D(2,3,4,5)            179.9681         estimate D2E/DX2                !
 ! D20   D(2,3,4,22)            58.606          estimate D2E/DX2                !
 ! D21   D(2,3,4,23)           -58.6608         estimate D2E/DX2                !
 ! D22   D(20,3,4,5)           -58.6631         estimate D2E/DX2                !
 ! D23   D(20,3,4,22)          179.9749         estimate D2E/DX2                !
 ! D24   D(20,3,4,23)           62.7081         estimate D2E/DX2                !
 ! D25   D(21,3,4,5)            58.615          estimate D2E/DX2                !
 ! D26   D(21,3,4,22)          -62.747          estimate D2E/DX2                !
 ! D27   D(21,3,4,23)          179.9862         estimate D2E/DX2                !
 ! D28   D(3,4,5,6)           -179.8542         estimate D2E/DX2                !
 ! D29   D(3,4,5,24)            58.782          estimate D2E/DX2                !
 ! D30   D(3,4,5,25)           -58.5171         estimate D2E/DX2                !
 ! D31   D(22,4,5,6)           -58.4984         estimate D2E/DX2                !
 ! D32   D(22,4,5,24)         -179.8623         estimate D2E/DX2                !
 ! D33   D(22,4,5,25)           62.8387         estimate D2E/DX2                !
 ! D34   D(23,4,5,6)            58.7729         estimate D2E/DX2                !
 ! D35   D(23,4,5,24)          -62.591          estimate D2E/DX2                !
 ! D36   D(23,4,5,25)         -179.89           estimate D2E/DX2                !
 ! D37   D(4,5,6,7)            179.9232         estimate D2E/DX2                !
 ! D38   D(4,5,6,26)            58.5629         estimate D2E/DX2                !
 ! D39   D(4,5,6,27)           -58.6971         estimate D2E/DX2                !
 ! D40   D(24,5,6,7)           -58.7156         estimate D2E/DX2                !
 ! D41   D(24,5,6,26)          179.9241         estimate D2E/DX2                !
 ! D42   D(24,5,6,27)           62.6641         estimate D2E/DX2                !
 ! D43   D(25,5,6,7)            58.5861         estimate D2E/DX2                !
 ! D44   D(25,5,6,26)          -62.7743         estimate D2E/DX2                !
 ! D45   D(25,5,6,27)          179.9658         estimate D2E/DX2                !
 ! D46   D(5,6,7,8)           -179.7926         estimate D2E/DX2                !
 ! D47   D(5,6,7,28)            58.8443         estimate D2E/DX2                !
 ! D48   D(5,6,7,29)           -58.4614         estimate D2E/DX2                !
 ! D49   D(26,6,7,8)           -58.4373         estimate D2E/DX2                !
 ! D50   D(26,6,7,28)         -179.8003         estimate D2E/DX2                !
 ! D51   D(26,6,7,29)           62.8939         estimate D2E/DX2                !
 ! D52   D(27,6,7,8)            58.824          estimate D2E/DX2                !
 ! D53   D(27,6,7,28)          -62.539          estimate D2E/DX2                !
 ! D54   D(27,6,7,29)         -179.8447         estimate D2E/DX2                !
 ! D55   D(6,7,8,9)            179.8949         estimate D2E/DX2                !
 ! D56   D(6,7,8,30)            58.5383         estimate D2E/DX2                !
 ! D57   D(6,7,8,31)           -58.7197         estimate D2E/DX2                !
 ! D58   D(28,7,8,9)           -58.7444         estimate D2E/DX2                !
 ! D59   D(28,7,8,30)          179.8989         estimate D2E/DX2                !
 ! D60   D(28,7,8,31)           62.641          estimate D2E/DX2                !
 ! D61   D(29,7,8,9)            58.5618         estimate D2E/DX2                !
 ! D62   D(29,7,8,30)          -62.7949         estimate D2E/DX2                !
 ! D63   D(29,7,8,31)          179.9472         estimate D2E/DX2                !
 ! D64   D(7,8,9,10)          -179.7779         estimate D2E/DX2                !
 ! D65   D(7,8,9,32)            58.86           estimate D2E/DX2                !
 ! D66   D(7,8,9,33)           -58.4465         estimate D2E/DX2                !
 ! D67   D(30,8,9,10)          -58.4243         estimate D2E/DX2                !
 ! D68   D(30,8,9,32)         -179.7864         estimate D2E/DX2                !
 ! D69   D(30,8,9,33)           62.9071         estimate D2E/DX2                !
 ! D70   D(31,8,9,10)           58.833          estimate D2E/DX2                !
 ! D71   D(31,8,9,32)          -62.529          estimate D2E/DX2                !
 ! D72   D(31,8,9,33)         -179.8355         estimate D2E/DX2                !
 ! D73   D(8,9,10,11)          179.9038         estimate D2E/DX2                !
 ! D74   D(8,9,10,34)           58.5496         estimate D2E/DX2                !
 ! D75   D(8,9,10,35)          -58.714          estimate D2E/DX2                !
 ! D76   D(32,9,10,11)         -58.7373         estimate D2E/DX2                !
 ! D77   D(32,9,10,34)         179.9085         estimate D2E/DX2                !
 ! D78   D(32,9,10,35)          62.6449         estimate D2E/DX2                !
 ! D79   D(33,9,10,11)          58.5679         estimate D2E/DX2                !
 ! D80   D(33,9,10,34)         -62.7863         estimate D2E/DX2                !
 ! D81   D(33,9,10,35)         179.9501         estimate D2E/DX2                !
 ! D82   D(9,10,11,12)        -179.8246         estimate D2E/DX2                !
 ! D83   D(9,10,11,36)          58.8154         estimate D2E/DX2                !
 ! D84   D(9,10,11,37)         -58.4856         estimate D2E/DX2                !
 ! D85   D(34,10,11,12)        -58.4705         estimate D2E/DX2                !
 ! D86   D(34,10,11,36)       -179.8305         estimate D2E/DX2                !
 ! D87   D(34,10,11,37)         62.8685         estimate D2E/DX2                !
 ! D88   D(35,10,11,12)         58.7902         estimate D2E/DX2                !
 ! D89   D(35,10,11,36)        -62.5698         estimate D2E/DX2                !
 ! D90   D(35,10,11,37)       -179.8708         estimate D2E/DX2                !
 ! D91   D(10,11,12,13)        179.9492         estimate D2E/DX2                !
 ! D92   D(10,11,12,38)         58.5876         estimate D2E/DX2                !
 ! D93   D(10,11,12,39)        -58.6713         estimate D2E/DX2                !
 ! D94   D(36,11,12,13)        -58.6934         estimate D2E/DX2                !
 ! D95   D(36,11,12,38)        179.9451         estimate D2E/DX2                !
 ! D96   D(36,11,12,39)         62.6861         estimate D2E/DX2                !
 ! D97   D(37,11,12,13)         58.6037         estimate D2E/DX2                !
 ! D98   D(37,11,12,38)        -62.7578         estimate D2E/DX2                !
 ! D99   D(37,11,12,39)        179.9832         estimate D2E/DX2                !
 ! D100  D(11,12,13,14)       -179.9145         estimate D2E/DX2                !
 ! D101  D(11,12,13,40)         58.9491         estimate D2E/DX2                !
 ! D102  D(11,12,13,41)        -58.7866         estimate D2E/DX2                !
 ! D103  D(38,12,13,14)        -58.5466         estimate D2E/DX2                !
 ! D104  D(38,12,13,40)       -179.683          estimate D2E/DX2                !
 ! D105  D(38,12,13,41)         62.5813         estimate D2E/DX2                !
 ! D106  D(39,12,13,14)         58.6993         estimate D2E/DX2                !
 ! D107  D(39,12,13,40)        -62.4371         estimate D2E/DX2                !
 ! D108  D(39,12,13,41)        179.8272         estimate D2E/DX2                !
 ! D109  D(12,13,14,42)        -60.2531         estimate D2E/DX2                !
 ! D110  D(12,13,14,43)       -179.9979         estimate D2E/DX2                !
 ! D111  D(12,13,14,44)         60.2651         estimate D2E/DX2                !
 ! D112  D(40,13,14,42)         61.3022         estimate D2E/DX2                !
 ! D113  D(40,13,14,43)        -58.4426         estimate D2E/DX2                !
 ! D114  D(40,13,14,44)       -178.1796         estimate D2E/DX2                !
 ! D115  D(41,13,14,42)        178.1931         estimate D2E/DX2                !
 ! D116  D(41,13,14,43)         58.4484         estimate D2E/DX2                !
 ! D117  D(41,13,14,44)        -61.2886         estimate D2E/DX2                !
 --------------------------------------------------------------------------------
 Trust Radius=3.00D-01 FncErr=1.00D-07 GrdErr=1.00D-06
 Number of steps in this run=    254 maximum allowed number of steps=    264.
 GradGradGradGradGradGradGradGradGradGradGradGradGradGradGradGradGradGrad

                          Input orientation:                          
 ---------------------------------------------------------------------
 Center     Atomic      Atomic             Coordinates (Angstroms)
 Number     Number       Type             X           Y           Z
 ---------------------------------------------------------------------
      1          6           0        0.186370   -1.255990   -2.428980
      2          6           0        0.592980   -2.596390   -1.837760
      3          6           0        1.842980   -2.468970   -0.967240
      4          6           0        2.249110   -3.820010   -0.376050
      5          6           0        3.500490   -3.693950    0.494770
      6          6           0        3.907370   -5.046430    1.082280
      7          6           0        5.159760   -4.922940    1.952000
      8          6           0        5.567580   -6.277480    2.534190
      9          6           0        6.821340   -6.157210    3.402320
     10          6           0        7.230140   -7.513930    3.978790
     11          6           0        8.485150   -7.396550    4.845440
     12          6           0        8.894780   -8.754890    5.417410
     13          6           0       10.149490   -8.639170    6.282620
     14          6           0       10.560510   -9.988150    6.851010
     15          1           0       -0.709350   -1.370610   -3.047460
     16          1           0        0.983320   -0.846650   -3.057980
     17          1           0       -0.036110   -0.530430   -1.640070
     18          1           0        0.776750   -3.307280   -2.651740
     19          1           0       -0.237160   -2.993060   -1.241730
     20          1           0        1.654890   -1.754550   -0.156540
     21          1           0        2.668790   -2.067080   -1.566910
     22          1           0        2.436620   -4.534090   -1.187180
     23          1           0        1.423280   -4.221590    0.223760
     24          1           0        3.312460   -2.981790    1.307420
     25          1           0        4.325830   -3.290540   -0.104440
     26          1           0        4.093930   -5.758480    0.269150
     27          1           0        3.082210   -5.449520    1.681990
     28          1           0        4.972540   -4.213680    2.767380
     29          1           0        5.984290   -4.517270    1.353210
     30          1           0        5.752870   -6.986680    1.718260
     31          1           0        4.743360   -6.682680    3.133750
     32          1           0        6.635390   -5.451020    4.220650
     33          1           0        7.644920   -5.749280    2.803770
     34          1           0        7.414350   -8.220090    3.159980
     35          1           0        6.406880   -7.921460    4.578080
     36          1           0        8.300430   -6.692780    5.666160
     37          1           0        9.307930   -6.986880    4.246980
     38          1           0        9.078510   -9.458820    4.596530
     39          1           0        8.072230   -9.164670    6.016200
     40          1           0        9.969580   -7.940850    7.108260
     41          1           0       10.975930   -8.232820    5.688020
     42          1           0        9.767330  -10.407960    7.477870
     43          1           0       11.459500   -9.882300    7.466260
     44          1           0       10.779300  -10.701270    6.049780
 ---------------------------------------------------------------------
                    Distance matrix (angstroms):
                    1          2          3          4          5
     1  C    0.000000
     2  C    1.520377   0.000000
     3  C    2.520389   1.528575   0.000000
     4  C    3.878610   2.525195   1.529626   0.000000
     5  C    5.047312   3.885737   2.526933   1.529762   0.000000
     6  C    6.367278   5.051189   3.886584   2.525997   1.529680
     7  C    7.574570   6.374213   5.054202   3.886921   2.527274
     8  C    8.877265   7.577006   6.374747   5.051821   3.886737
     9  C   10.101923   8.884275   7.581572   6.375255   5.054655
    10  C   11.394561  10.102789   8.884612   7.577621   6.375024
    11  C   12.629070  11.401449  10.108745   8.885032   7.581848
    12  C   13.915306  12.628717  11.401948  10.103571   8.885036
    13  C   15.154771  13.920583  12.634475  11.400798  10.107602
    14  C   16.431422  15.148746  13.916121  12.623617  11.395728
    15  H    1.094518   2.159161   3.471037   4.678512   5.972274
    16  H    1.094682   2.168615   2.782469   4.199505   5.202432
    17  H    1.094675   2.168646   2.782376   4.200156   5.203166
    18  H    2.146150   1.096221   2.162672   2.758532   4.179569
    19  H    2.146241   1.096235   2.162637   2.759490   4.180515
    20  H    2.751199   2.159363   1.096817   2.160418   2.755307
    21  H    2.750171   2.159286   1.096851   2.160334   2.754806
    22  H    4.165529   2.752625   2.159977   1.096815   2.160234
    23  H    4.166744   2.753278   2.160163   1.096829   2.160243
    24  H    5.168318   4.175675   2.756163   2.160416   1.096780
    25  H    5.165076   4.173777   2.753896   2.160295   1.096804
    26  H    6.543802   5.166675   4.173286   2.752691   2.159944
    27  H    6.547645   5.169648   4.175858   2.754067   2.160203
    28  H    7.658819   6.557704   5.175475   4.177703   2.757137
    29  H    7.652241   6.552732   5.170152   4.174695   2.753913
    30  H    9.001463   7.651431   6.550485   5.166262   4.172795
    31  H    9.008834   7.657632   6.556346   5.170576   4.176296
    32  H   10.168860   9.020197   7.666421   6.559672   5.176589
    33  H   10.158804   9.011902   7.657902   6.553480   5.170316
    34  H   11.488205  10.155516   9.008301   7.651400   6.550388
    35  H   11.498788  10.164684   9.017173   7.658482   6.556856
    36  H   12.685738  11.510604  10.175521   9.021063   7.666530
    37  H   12.673374  11.500036  10.164894   9.012681   7.658252
    38  H   13.989795  12.668751  11.496366  10.156940   9.009576
    39  H   14.001967  12.679360  11.506711  10.165381   9.017526
    40  H   15.210440  14.018386  12.696330  11.515289  10.179565
    41  H   15.197909  14.007582  12.685631  11.506660  10.171204
    42  H   16.543852  15.230571  14.040754  12.712544  11.537543
    43  H   17.303539  16.053988  14.783736  13.530871  12.257373
    44  H   16.532176  15.220495  14.030935  12.704612  11.530037
                    6          7          8          9         10
     6  C    0.000000
     7  C    1.529753   0.000000
     8  C    2.525831   1.529719   0.000000
     9  C    3.886855   2.527390   1.529715   0.000000
    10  C    5.051646   3.886847   2.525823   1.529746   0.000000
    11  C    6.374991   5.054598   3.886696   2.527216   1.529677
    12  C    7.577617   6.375208   5.051809   3.886860   2.525992
    13  C    8.883433   7.580372   6.373555   5.053003   3.885409
    14  C   10.097679   8.878330   7.571879   6.367963   5.046065
    15  H    7.202813   8.488822   9.727900  11.010109  12.253329
    16  H    6.582551   7.691469   9.043325  10.199020  11.532195
    17  H    6.584564   7.693775   9.047341  10.203478  11.538598
    18  H    5.173812   6.558625   7.659505   9.017251  10.163960
    19  H    5.176338   6.561333   7.664202   9.022276  10.171168
    20  H    4.176699   5.173853   6.557901   7.664275   9.019691
    21  H    4.174783   5.171421   6.553585   7.659379   9.012706
    22  H    2.752462   4.173865   5.166325   6.551626   7.651440
    23  H    2.754654   4.176121   5.171073   6.556594   7.658941
    24  H    2.160404   2.756096   4.177571   5.175339   6.559324
    25  H    2.160223   2.754835   4.174461   5.171338   6.553229
    26  H    1.096814   2.160117   2.751620   4.173069   5.165157
    27  H    1.096824   2.160187   2.754783   4.176297   5.171306
    28  H    2.160468   1.096789   2.160491   2.756541   4.178028
    29  H    2.160326   1.096799   2.160255   2.754797   4.174420
    30  H    2.752256   2.159962   1.096831   2.160025   2.751421
    31  H    2.754037   2.160233   1.096813   2.160150   2.754840
    32  H    4.177936   2.757377   2.160417   1.096789   2.160514
    33  H    4.174543   2.753974   2.160326   1.096792   2.160256
    34  H    5.166030   4.172959   2.752436   2.160061   1.096834
    35  H    5.170490   4.176449   2.754012   2.160270   1.096807
    36  H    6.559070   5.176015   4.177341   2.756722   2.160330
    37  H    6.553375   5.170502   4.174580   2.754076   2.160305
    38  H    7.652439   6.551668   5.167282   4.173917   2.753302
    39  H    7.658298   6.556865   5.170448   4.176351   2.754106
    40  H    9.024439   7.670017   6.562509   5.179457   4.180954
    41  H    9.018340   7.664267   6.558982   5.176215   4.179619
    42  H   10.197485   9.047120   7.690171   6.584667   5.201567
    43  H   11.007975   9.730829   8.487330   7.204473   5.971525
    44  H   10.191992   9.042131   7.687088   6.582019   5.200449
                   11         12         13         14         15
    11  C    0.000000
    12  C    1.529717   0.000000
    13  C    2.525791   1.528488   0.000000
    14  C    3.878894   2.520078   1.520445   0.000000
    15  H   13.533243  14.779071  16.056051  17.298886   0.000000
    16  H   12.713878  14.034375  15.231180  16.537160   1.771941
    17  H   12.720744  14.043168  15.240313  16.547969   1.771977
    18  H   11.504315  12.676358  14.003574  15.187437   2.473010
    19  H   11.511866  12.686022  14.013454  15.199125   2.473048
    20  H   10.173712  11.510416  12.689326  14.007426   3.754259
    21  H   10.166195  11.500890  12.679446  13.995856   3.753522
    22  H    9.009489  10.155963  11.495128  12.663209   4.833774
    23  H    9.017223  10.166028  11.505283  12.675276   4.834985
    24  H    7.665795   9.021253  10.173669  11.504551   6.142950
    25  H    7.659019   9.012505  10.164516  11.493803   6.140076
    26  H    6.550459   7.650570   9.007220  10.150254   7.302383
    27  H    6.556684   7.659295   9.015881  10.160851   7.306239
    28  H    5.175657   6.559666   7.664378   9.013653   8.612740
    29  H    5.171095   6.553327   7.657547   9.005450   8.606520
    30  H    4.172841   5.165450   6.549380   7.646394   9.798603
    31  H    4.176181   5.171407   6.555111   7.653979   9.805993
    32  H    2.756277   4.177635   5.173482   6.550642  11.109472
    33  H    2.754615   4.174561   5.169790   6.545902  11.099706
    34  H    2.160001   2.752031   4.172230   5.162176  12.306185
    35  H    2.160143   2.754764   4.174649   5.166242  12.316786
    36  H    1.096811   2.160423   2.754538   4.167889  13.617224
    37  H    1.096791   2.160199   2.753564   4.166239  13.605045
    38  H    2.160322   1.096867   2.159103   2.749399  14.820659
    39  H    2.160424   1.096840   2.159199   2.750739  14.832850
    40  H    2.760462   2.162598   1.096221   2.146349  16.135249
    41  H    2.759216   2.162631   1.096208   2.146230  16.122788
    42  H    4.200269   2.781992   2.168706   1.094682  17.384392
    43  H    4.679146   3.470825   2.159283   1.094495  18.195276
    44  H    4.199373   2.782032   2.168670   1.094705  17.372682
                   16         17         18         19         20
    16  H    0.000000
    17  H    1.774740   0.000000
    18  H    2.502479   3.065145   0.000000
    19  H    3.065194   2.502727   1.764901   0.000000
    20  H    3.113462   2.561018   3.067266   2.508266   0.000000
    21  H    2.559990   3.111773   2.508938   3.067202   1.764883
    22  H    4.382829   4.727451   2.530843   3.086559   3.065805
    23  H    4.727960   4.385014   3.085849   2.532589   2.506902
    24  H    5.388918   5.090165   4.712825   4.370137   2.529197
    25  H    5.086096   5.385433   4.368637   4.711985   3.081542
    26  H    6.698639   6.930718   5.054074   5.356178   4.707609
    27  H    6.932465   6.705032   5.355890   5.059699   4.366948
    28  H    7.822122   7.620927   6.913254   6.686094   5.059983
    29  H    7.611948   7.816638   6.679983   6.911105   5.353099
    30  H    9.124749   9.299131   7.576058   7.784022   6.905324
    31  H    9.302401   9.136896   7.784550   7.587075   6.682149
    32  H   10.301678  10.152298   9.281650   9.116529   7.591381
    33  H   10.137692  10.294772   9.104818   9.278470   7.784713
    34  H   11.592618  11.733742  10.097996  10.258777   9.272211
    35  H   11.737860  11.610548  10.259596  10.114474   9.112015
    36  H   12.799529  12.682801  11.715581  11.588672  10.121914
    37  H   12.663491  12.792740  11.572071  11.712612  10.263395
    38  H   14.081658  14.201677  12.621334  12.754334  11.707160
    39  H   14.205029  14.103679  12.754067  12.641688  11.584250
    40  H   15.311204  15.217143  14.185757  14.084761  12.656291
    41  H   15.195403  15.306624  14.065412  14.184848  12.767484
    42  H   16.720694  16.637604  15.292455  15.202039  14.105935
    43  H   17.382547  17.393440  16.116016  16.127696  14.842432
    44  H   16.614032  16.719835  15.180202  15.295261  14.206233
                   21         22         23         24         25
    21  H    0.000000
    22  H    2.506838   0.000000
    23  H    3.065894   1.765012   0.000000
    24  H    3.084279   3.065903   2.506077   0.000000
    25  H    2.526154   2.507560   3.065839   1.765105   0.000000
    26  H    4.362175   2.523233   3.081633   3.065731   2.506806
    27  H    4.708202   3.080087   2.527112   2.506593   3.065798
    28  H    5.357352   4.708726   4.366613   2.530791   3.085089
    29  H    5.052036   4.363465   4.708067   3.081959   2.525886
    30  H    6.671308   5.045225   5.350196   4.707816   4.361207
    31  H    6.906794   5.348638   5.054497   4.368014   4.708165
    32  H    7.789789   6.907609   6.682269   5.062200   5.357998
    33  H    7.577817   6.673137   6.906453   5.354276   5.051678
    34  H    9.095238   7.567179   7.778323   6.906321   6.670521
    35  H    9.274049   7.776597   7.581913   6.683786   6.906677
    36  H   10.267900   9.274291   9.111624   7.592754   7.789256
    37  H   10.103659   9.097317   9.273663   7.786361   7.577540
    38  H   11.563318  10.090539  10.254377   9.274562   9.095865
    39  H   11.707968  10.251393  10.109151   9.113508   9.273788
    40  H   12.769545  11.711781  11.587428  10.127155  10.271336
    41  H   12.635622  11.570168  11.713293  10.270917  10.109528
    42  H   14.204492  12.779857  12.669509  11.614121  11.737079
    43  H   14.830793  13.597711  13.609671  12.325689  12.314871
    44  H   14.083450  12.649427  12.785299  11.740275  11.594853
                   26         27         28         29         30
    26  H    0.000000
    27  H    1.764979   0.000000
    28  H    3.065863   2.505737   0.000000
    29  H    2.507838   3.065820   1.765129   0.000000
    30  H    2.521999   3.081656   3.065795   2.506951   0.000000
    31  H    3.079259   2.527392   2.506534   3.065816   1.764975
    32  H    4.708280   4.366908   2.531417   3.085131   3.065787
    33  H    4.362787   4.708139   3.082370   2.525800   2.507856
    34  H    5.043968   5.350509   4.708279   4.361234   2.521978
    35  H    5.347438   5.054825   4.368478   4.708171   3.078979
    36  H    6.906177   6.682000   5.061987   5.357134   4.707691
    37  H    6.672173   6.906681   5.354947   5.051679   4.362669
    38  H    7.567349   7.779759   6.907697   6.671749   5.045374
    39  H    7.775448   7.582085   6.683952   6.906612   5.347463
    40  H    9.276822   9.115207   7.596410   7.792563   6.909644
    41  H    9.102112   9.279324   7.792581   7.583690   6.677740
    42  H   10.284492  10.142445   9.140450   9.301778   7.809875
    43  H   11.093057  11.103437   9.812919   9.804634   8.601729
    44  H   10.126254  10.290950   9.304915   9.126431   7.604291
                   31         32         33         34         35
    31  H    0.000000
    32  H    2.505617   0.000000
    33  H    3.065807   1.765123   0.000000
    34  H    3.081964   3.065868   2.506980   0.000000
    35  H    2.527442   2.506601   3.065825   1.764988   0.000000
    36  H    4.366457   2.530578   3.084341   3.065738   2.505814
    37  H    4.708197   3.082536   2.525888   2.507593   3.065805
    38  H    5.351654   4.708777   4.362322   2.523402   3.082438
    39  H    5.054717   4.368032   4.708204   3.079453   2.527281
    40  H    6.685290   5.065014   5.360565   4.711273   4.369785
    41  H    6.911741   5.360212   5.057914   4.367608   4.712232
    42  H    7.615075   6.707442   6.932181   5.382143   5.087641
    43  H    8.608992   7.310422   7.305593   6.137608   6.141290
    44  H    7.815681   6.934179   6.699487   5.082331   5.386214
                   36         37         38         39         40
    36  H    0.000000
    37  H    1.765113   0.000000
    38  H    3.066023   2.507051   0.000000
    39  H    2.506959   3.065920   1.764819   0.000000
    40  H    2.534441   3.087841   3.067088   2.508041   0.000000
    41  H    3.087151   2.532032   2.508910   3.067168   1.764956
    42  H    4.385961   4.727947   3.110862   2.560393   2.502828
    43  H    4.836644   4.834922   3.752839   3.753833   2.473308
    44  H    4.728631   4.383117   2.558965   3.112956   3.065281
                   41         42         43         44
    41  H    0.000000
    42  H    3.065210   0.000000
    43  H    2.473209   1.771974   0.000000
    44  H    2.502555   1.774699   1.771948   0.000000
 Stoichiometry    C14H30
 Framework group  C1[X(C14H30)]
 Deg. of freedom   126
 Full point group                 C1      NOp   1
 Largest Abelian subgroup         C1      NOp   1
 Largest concise Abelian subgroup C1      NOp   1
                         Standard orientation:                         
 ---------------------------------------------------------------------
 Center     Atomic      Atomic             Coordinates (Angstroms)
 Number     Number       Type             X           Y           Z
 ---------------------------------------------------------------------
      1          6           0       -8.210606    0.312151   -0.020498
      2          6           0       -6.939483   -0.521916   -0.009402
      3          6           0       -5.690708    0.359611   -0.005646
      4          6           0       -4.414612   -0.483742    0.003875
      5          6           0       -3.164088    0.397367    0.006848
      6          6           0       -1.888891   -0.447475    0.012742
      7          6           0       -0.637058    0.431762    0.013814
      8          6           0        0.636735   -0.415287    0.014552
      9          6           0        1.890155    0.461619    0.013012
     10          6           0        3.162400   -0.387788    0.008230
     11          6           0        4.417229    0.487026    0.004292
     12          6           0        5.688248   -0.364126   -0.004850
     13          6           0        6.942884    0.508879   -0.010056
     14          6           0        8.208096   -0.334250   -0.021258
     15          1           0       -9.090789   -0.338419   -0.022929
     16          1           0       -8.255308    0.947361   -0.910912
     17          1           0       -8.265813    0.955050    0.863780
     18          1           0       -6.931146   -1.175966   -0.889088
     19          1           0       -6.941578   -1.168602    0.875767
     20          1           0       -5.705495    1.013941    0.874491
     21          1           0       -5.696118    1.007946   -0.890357
     22          1           0       -4.400618   -1.138147   -0.876216
     23          1           0       -4.409289   -1.131800    0.888763
     24          1           0       -3.176594    1.050146    0.888125
     25          1           0       -3.170299    1.046841   -0.876965
     26          1           0       -1.877672   -1.100975   -0.868060
     27          1           0       -1.882437   -1.096500    0.896907
     28          1           0       -0.646030    1.082953    0.896319
     29          1           0       -0.644682    1.082826   -0.868810
     30          1           0        0.644104   -1.067484   -0.867278
     31          1           0        0.644767   -1.065663    0.897697
     32          1           0        1.885229    1.111346    0.896628
     33          1           0        1.880923    1.114172   -0.868488
     34          1           0        3.165904   -1.038439   -0.874768
     35          1           0        3.172065   -1.039714    0.890209
     36          1           0        4.415677    1.135724    0.888704
     37          1           0        4.406660    1.140676   -0.876379
     38          1           0        5.689143   -1.013480   -0.888851
     39          1           0        5.699210   -1.017697    0.875935
     40          1           0        6.949996    1.156193    0.874610
     41          1           0        6.938562    1.162199   -0.890298
     42          1           0        8.259247   -0.976854    0.863486
     43          1           0        9.092932    0.309934   -0.024793
     44          1           0        8.247651   -0.970553   -0.911163
 ---------------------------------------------------------------------
 Rotational constants (GHZ):      5.9152047      0.0957593      0.0950148
 Standard basis: STO-3G (5D, 7F)
 There are   100 symmetry adapted cartesian basis functions of A   symmetry.
 There are   100 symmetry adapted basis functions of A   symmetry.
   100 basis functions,   300 primitive gaussians,   100 cartesian basis functions
    57 alpha electrons       57 beta electrons
       nuclear repulsion energy       839.1792744638 Hartrees.
 NAtoms=   44 NActive=   44 NUniq=   44 SFac= 1.00D+00 NAtFMM=   60 NAOKFM=F Big=F
 Integral buffers will be    131072 words long.
 Raffenetti 2 integral format.
 Two-electron integral symmetry is turned on.
 One-electron integrals computed using PRISM.
 NBasis=   100 RedAO= T EigKep=  1.97D-01  NBF=   100
 NBsUse=   100 1.00D-06 EigRej= -1.00D+00 NBFU=   100
 ExpMin= 1.69D-01 ExpMax= 7.16D+01 ExpMxC= 7.16D+01 IAcc=1 IRadAn=         1 AccDes= 0.00D+00
 Harris functional with IExCor=  402 and IRadAn=       1 diagonalized for initial guess.
 HarFok:  IExCor=  402 AccDes= 0.00D+00 IRadAn=         1 IDoV= 1 UseB2=F ITyADJ=14
 ICtDFT=  3500011 ScaDFX=  1.000000  1.000000  1.000000  1.000000
 FoFCou: FMM=F IPFlag=           0 FMFlag=      100000 FMFlg1=           0
         NFxFlg=           0 DoJE=T BraDBF=F KetDBF=T FulRan=T
         wScrn=  0.000000 ICntrl=     500 IOpCl=  0 I1Cent=   200000004 NGrid=           0
         NMat0=    1 NMatS0=      1 NMatT0=    0 NMatD0=    1 NMtDS0=    0 NMtDT0=    0
 Petite list used in FoFCou.
 Keep R1 ints in memory in canonical form, NReq=13731069.
 Requested convergence on RMS density matrix=1.00D-08 within 128 cycles.
 Requested convergence on MAX density matrix=1.00D-06.
 Requested convergence on             energy=1.00D-06.
 No special actions if energy rises.
 Integral accuracy reduced to 1.0D-05 until final iterations.
 Initial convergence to 1.0D-05 achieved.  Increase integral accuracy.
 SCF Done:  E(RB3LYP) =  -545.052924096     A.U. after   10 cycles
            NFock= 10  Conv=0.40D-08     -V/T= 2.0172

 **********************************************************************

            Population analysis using the SCF density.

 **********************************************************************

 Orbital symmetries:
       Occupied  (A) (A) (A) (A) (A) (A) (A) (A) (A) (A) (A) (A)
                 (A) (A) (A) (A) (A) (A) (A) (A) (A) (A) (A) (A)
                 (A) (A) (A) (A) (A) (A) (A) (A) (A) (A) (A) (A)
                 (A) (A) (A) (A) (A) (A) (A) (A) (A) (A) (A) (A)
                 (A) (A) (A) (A) (A) (A) (A) (A) (A)
       Virtual   (A) (A) (A) (A) (A) (A) (A) (A) (A) (A) (A) (A)
                 (A) (A) (A) (A) (A) (A) (A) (A) (A) (A) (A) (A)
                 (A) (A) (A) (A) (A) (A) (A) (A) (A) (A) (A) (A)
                 (A) (A) (A) (A) (A) (A) (A)
 The electronic state is 1-A.
 Alpha  occ. eigenvalues --  -10.00566 -10.00566 -10.00263 -10.00262 -10.00219
 Alpha  occ. eigenvalues --  -10.00206 -10.00183 -10.00155 -10.00126 -10.00095
 Alpha  occ. eigenvalues --  -10.00063 -10.00033  -9.99754  -9.99754  -0.77840
 Alpha  occ. eigenvalues --   -0.77015  -0.75589  -0.73591  -0.71060  -0.68057
 Alpha  occ. eigenvalues --   -0.64674  -0.61074  -0.57595  -0.54998  -0.54678
 Alpha  occ. eigenvalues --   -0.54343  -0.53590  -0.53493  -0.45606  -0.44815
 Alpha  occ. eigenvalues --   -0.43481  -0.41679  -0.39724  -0.39515  -0.39362
 Alpha  occ. eigenvalues --   -0.37985  -0.37649  -0.37137  -0.35520  -0.34742
 Alpha  occ. eigenvalues --   -0.34590  -0.33314  -0.32545  -0.31512  -0.30743
 Alpha  occ. eigenvalues --   -0.30282  -0.30019  -0.29455  -0.29030  -0.28693
 Alpha  occ. eigenvalues --   -0.28478  -0.28370  -0.28260  -0.28252  -0.28173
 Alpha  occ. eigenvalues --   -0.26271  -0.23296
 Alpha virt. eigenvalues --    0.32874   0.35314   0.35811   0.36274   0.37818
 Alpha virt. eigenvalues --    0.39678   0.39786   0.39998   0.40084   0.40424
 Alpha virt. eigenvalues --    0.41194   0.41995   0.42751   0.43655   0.44259
 Alpha virt. eigenvalues --    0.45017   0.46439   0.46737   0.47656   0.47835
 Alpha virt. eigenvalues --    0.48476   0.49079   0.49111   0.49959   0.50028
 Alpha virt. eigenvalues --    0.50397   0.50775   0.50793   0.51231   0.52047
 Alpha virt. eigenvalues --    0.52252   0.52574   0.52936   0.53393   0.53533
 Alpha virt. eigenvalues --    0.54031   0.54035   0.54055   0.54365   0.54435
 Alpha virt. eigenvalues --    0.55647   0.56944   0.57803
          Condensed to atoms (all electrons):
               1          2          3          4          5          6
     1  C    4.785134   0.366349  -0.023817   0.000836  -0.000006   0.000000
     2  C    0.366349   4.770906   0.365606  -0.022865   0.000811  -0.000006
     3  C   -0.023817   0.365606   4.783634   0.364752  -0.022706   0.000808
     4  C    0.000836  -0.022865   0.364752   4.784600   0.364720  -0.022752
     5  C   -0.000006   0.000811  -0.022706   0.364720   4.784622   0.364703
     6  C    0.000000  -0.000006   0.000808  -0.022752   0.364703   4.784736
     7  C    0.000000   0.000000  -0.000006   0.000807  -0.022682   0.364684
     8  C    0.000000   0.000000   0.000000  -0.000006   0.000808  -0.022759
     9  C    0.000000   0.000000   0.000000   0.000000  -0.000006   0.000807
    10  C    0.000000   0.000000   0.000000   0.000000   0.000000  -0.000006
    11  C    0.000000   0.000000   0.000000   0.000000   0.000000   0.000000
    12  C    0.000000   0.000000   0.000000   0.000000   0.000000   0.000000
    13  C    0.000000   0.000000   0.000000   0.000000   0.000000   0.000000
    14  C    0.000000   0.000000   0.000000   0.000000   0.000000   0.000000
    15  H    0.380976  -0.020311   0.001442  -0.000020   0.000000   0.000000
    16  H    0.381488  -0.020787  -0.002474   0.000011   0.000000   0.000000
    17  H    0.381489  -0.020786  -0.002473   0.000011   0.000000   0.000000
    18  H   -0.022685   0.381094  -0.022108  -0.002441   0.000010   0.000000
    19  H   -0.022679   0.381088  -0.022110  -0.002427   0.000010   0.000000
    20  H   -0.002421  -0.022210   0.380443  -0.022140  -0.002447   0.000010
    21  H   -0.002434  -0.022216   0.380437  -0.022145  -0.002459   0.000010
    22  H    0.000010  -0.002468  -0.022199   0.380449  -0.022172  -0.002481
    23  H    0.000010  -0.002458  -0.022187   0.380442  -0.022170  -0.002448
    24  H    0.000000   0.000010  -0.002437  -0.022175   0.380442  -0.022168
    25  H    0.000000   0.000010  -0.002469  -0.022185   0.380439  -0.022179
    26  H    0.000000   0.000000   0.000010  -0.002478  -0.022207   0.380444
    27  H    0.000000   0.000000   0.000010  -0.002455  -0.022191   0.380436
    28  H    0.000000   0.000000   0.000000   0.000010  -0.002426  -0.022169
    29  H    0.000000   0.000000   0.000000   0.000010  -0.002472  -0.022181
    30  H    0.000000   0.000000   0.000000   0.000000   0.000010  -0.002484
    31  H    0.000000   0.000000   0.000000   0.000000   0.000010  -0.002452
    32  H    0.000000   0.000000   0.000000   0.000000   0.000000   0.000010
    33  H    0.000000   0.000000   0.000000   0.000000   0.000000   0.000010
    34  H    0.000000   0.000000   0.000000   0.000000   0.000000   0.000000
    35  H    0.000000   0.000000   0.000000   0.000000   0.000000   0.000000
    36  H    0.000000   0.000000   0.000000   0.000000   0.000000   0.000000
    37  H    0.000000   0.000000   0.000000   0.000000   0.000000   0.000000
    38  H    0.000000   0.000000   0.000000   0.000000   0.000000   0.000000
    39  H    0.000000   0.000000   0.000000   0.000000   0.000000   0.000000
    40  H    0.000000   0.000000   0.000000   0.000000   0.000000   0.000000
    41  H    0.000000   0.000000   0.000000   0.000000   0.000000   0.000000
    42  H    0.000000   0.000000   0.000000   0.000000   0.000000   0.000000
    43  H    0.000000   0.000000   0.000000   0.000000   0.000000   0.000000
    44  H    0.000000   0.000000   0.000000   0.000000   0.000000   0.000000
               7          8          9         10         11         12
     1  C    0.000000   0.000000   0.000000   0.000000   0.000000   0.000000
     2  C    0.000000   0.000000   0.000000   0.000000   0.000000   0.000000
     3  C   -0.000006   0.000000   0.000000   0.000000   0.000000   0.000000
     4  C    0.000807  -0.000006   0.000000   0.000000   0.000000   0.000000
     5  C   -0.022682   0.000808  -0.000006   0.000000   0.000000   0.000000
     6  C    0.364684  -0.022759   0.000807  -0.000006   0.000000   0.000000
     7  C    4.784682   0.364687  -0.022676   0.000808  -0.000006   0.000000
     8  C    0.364687   4.784757   0.364689  -0.022760   0.000808  -0.000006
     9  C   -0.022676   0.364689   4.784667   0.364694  -0.022687   0.000808
    10  C    0.000808  -0.022760   0.364694   4.784683   0.364730  -0.022755
    11  C   -0.000006   0.000808  -0.022687   0.364730   4.784552   0.364741
    12  C    0.000000  -0.000006   0.000808  -0.022755   0.364741   4.783668
    13  C    0.000000   0.000000  -0.000006   0.000811  -0.022834   0.365616
    14  C    0.000000   0.000000   0.000000  -0.000006   0.000836  -0.023833
    15  H    0.000000   0.000000   0.000000   0.000000   0.000000   0.000000
    16  H    0.000000   0.000000   0.000000   0.000000   0.000000   0.000000
    17  H    0.000000   0.000000   0.000000   0.000000   0.000000   0.000000
    18  H    0.000000   0.000000   0.000000   0.000000   0.000000   0.000000
    19  H    0.000000   0.000000   0.000000   0.000000   0.000000   0.000000
    20  H    0.000000   0.000000   0.000000   0.000000   0.000000   0.000000
    21  H    0.000000   0.000000   0.000000   0.000000   0.000000   0.000000
    22  H    0.000010   0.000000   0.000000   0.000000   0.000000   0.000000
    23  H    0.000010   0.000000   0.000000   0.000000   0.000000   0.000000
    24  H   -0.002437   0.000010   0.000000   0.000000   0.000000   0.000000
    25  H   -0.002462   0.000010   0.000000   0.000000   0.000000   0.000000
    26  H   -0.022194  -0.002491   0.000010   0.000000   0.000000   0.000000
    27  H   -0.022187  -0.002444   0.000010   0.000000   0.000000   0.000000
    28  H    0.380437  -0.022167  -0.002432   0.000010   0.000000   0.000000
    29  H    0.380439  -0.022182  -0.002464   0.000010   0.000000   0.000000
    30  H   -0.022205   0.380439  -0.022203  -0.002494   0.000010   0.000000
    31  H   -0.022187   0.380439  -0.022192  -0.002444   0.000010   0.000000
    32  H   -0.002423  -0.022169   0.380437  -0.022168  -0.002435   0.000010
    33  H   -0.002472  -0.022177   0.380442  -0.022185  -0.002464   0.000010
    34  H    0.000010  -0.002483  -0.022193   0.380438  -0.022206  -0.002486
    35  H    0.000010  -0.002452  -0.022180   0.380442  -0.022195  -0.002447
    36  H    0.000000   0.000010  -0.002430  -0.022161   0.380441  -0.022168
    37  H    0.000000   0.000010  -0.002470  -0.022165   0.380450  -0.022183
    38  H    0.000000   0.000000   0.000010  -0.002473  -0.022148   0.380436
    39  H    0.000000   0.000000   0.000010  -0.002455  -0.022142   0.380441
    40  H    0.000000   0.000000   0.000000   0.000010  -0.002418  -0.022110
    41  H    0.000000   0.000000   0.000000   0.000010  -0.002437  -0.022109
    42  H    0.000000   0.000000   0.000000   0.000000   0.000011  -0.002475
    43  H    0.000000   0.000000   0.000000   0.000000  -0.000019   0.001443
    44  H    0.000000   0.000000   0.000000   0.000000   0.000011  -0.002477
              13         14         15         16         17         18
     1  C    0.000000   0.000000   0.380976   0.381488   0.381489  -0.022685
     2  C    0.000000   0.000000  -0.020311  -0.020787  -0.020786   0.381094
     3  C    0.000000   0.000000   0.001442  -0.002474  -0.002473  -0.022108
     4  C    0.000000   0.000000  -0.000020   0.000011   0.000011  -0.002441
     5  C    0.000000   0.000000   0.000000   0.000000   0.000000   0.000010
     6  C    0.000000   0.000000   0.000000   0.000000   0.000000   0.000000
     7  C    0.000000   0.000000   0.000000   0.000000   0.000000   0.000000
     8  C    0.000000   0.000000   0.000000   0.000000   0.000000   0.000000
     9  C   -0.000006   0.000000   0.000000   0.000000   0.000000   0.000000
    10  C    0.000811  -0.000006   0.000000   0.000000   0.000000   0.000000
    11  C   -0.022834   0.000836   0.000000   0.000000   0.000000   0.000000
    12  C    0.365616  -0.023833   0.000000   0.000000   0.000000   0.000000
    13  C    4.770886   0.366341   0.000000   0.000000   0.000000   0.000000
    14  C    0.366341   4.785151   0.000000   0.000000   0.000000   0.000000
    15  H    0.000000   0.000000   0.613297  -0.021126  -0.021124  -0.002483
    16  H    0.000000   0.000000  -0.021126   0.612797  -0.021307  -0.002561
    17  H    0.000000   0.000000  -0.021124  -0.021307   0.612786   0.002067
    18  H    0.000000   0.000000  -0.002483  -0.002561   0.002067   0.623569
    19  H    0.000000   0.000000  -0.002484   0.002066  -0.002558  -0.023107
    20  H    0.000000   0.000000   0.000013  -0.000027   0.000590   0.002016
    21  H    0.000000   0.000000   0.000013   0.000591  -0.000028  -0.002492
    22  H    0.000000   0.000000   0.000000   0.000002  -0.000001   0.000568
    23  H    0.000000   0.000000   0.000000  -0.000001   0.000002  -0.000014
    24  H    0.000000   0.000000   0.000000   0.000000   0.000000  -0.000001
    25  H    0.000000   0.000000   0.000000   0.000000   0.000000   0.000002
    26  H    0.000000   0.000000   0.000000   0.000000   0.000000   0.000000
    27  H    0.000000   0.000000   0.000000   0.000000   0.000000   0.000000
    28  H    0.000000   0.000000   0.000000   0.000000   0.000000   0.000000
    29  H    0.000000   0.000000   0.000000   0.000000   0.000000   0.000000
    30  H    0.000000   0.000000   0.000000   0.000000   0.000000   0.000000
    31  H    0.000000   0.000000   0.000000   0.000000   0.000000   0.000000
    32  H    0.000000   0.000000   0.000000   0.000000   0.000000   0.000000
    33  H    0.000000   0.000000   0.000000   0.000000   0.000000   0.000000
    34  H    0.000010   0.000000   0.000000   0.000000   0.000000   0.000000
    35  H    0.000010   0.000000   0.000000   0.000000   0.000000   0.000000
    36  H   -0.002446   0.000010   0.000000   0.000000   0.000000   0.000000
    37  H   -0.002461   0.000010   0.000000   0.000000   0.000000   0.000000
    38  H   -0.022229  -0.002442   0.000000   0.000000   0.000000   0.000000
    39  H   -0.022221  -0.002424   0.000000   0.000000   0.000000   0.000000
    40  H    0.381091  -0.022672   0.000000   0.000000   0.000000   0.000000
    41  H    0.381096  -0.022680   0.000000   0.000000   0.000000   0.000000
    42  H   -0.020783   0.381487   0.000000   0.000000   0.000000   0.000000
    43  H   -0.020307   0.380980   0.000000   0.000000   0.000000   0.000000
    44  H   -0.020785   0.381483   0.000000   0.000000   0.000000   0.000000
              19         20         21         22         23         24
     1  C   -0.022679  -0.002421  -0.002434   0.000010   0.000010   0.000000
     2  C    0.381088  -0.022210  -0.022216  -0.002468  -0.002458   0.000010
     3  C   -0.022110   0.380443   0.380437  -0.022199  -0.022187  -0.002437
     4  C   -0.002427  -0.022140  -0.022145   0.380449   0.380442  -0.022175
     5  C    0.000010  -0.002447  -0.002459  -0.022172  -0.022170   0.380442
     6  C    0.000000   0.000010   0.000010  -0.002481  -0.002448  -0.022168
     7  C    0.000000   0.000000   0.000000   0.000010   0.000010  -0.002437
     8  C    0.000000   0.000000   0.000000   0.000000   0.000000   0.000010
     9  C    0.000000   0.000000   0.000000   0.000000   0.000000   0.000000
    10  C    0.000000   0.000000   0.000000   0.000000   0.000000   0.000000
    11  C    0.000000   0.000000   0.000000   0.000000   0.000000   0.000000
    12  C    0.000000   0.000000   0.000000   0.000000   0.000000   0.000000
    13  C    0.000000   0.000000   0.000000   0.000000   0.000000   0.000000
    14  C    0.000000   0.000000   0.000000   0.000000   0.000000   0.000000
    15  H   -0.002484   0.000013   0.000013   0.000000   0.000000   0.000000
    16  H    0.002066  -0.000027   0.000591   0.000002  -0.000001   0.000000
    17  H   -0.002558   0.000590  -0.000028  -0.000001   0.000002   0.000000
    18  H   -0.023107   0.002016  -0.002492   0.000568  -0.000014  -0.000001
    19  H    0.623570  -0.002504   0.002016  -0.000014   0.000565   0.000002
    20  H   -0.002504   0.625037  -0.023318   0.002017  -0.002508   0.000566
    21  H    0.002016  -0.023318   0.625074  -0.002506   0.002016  -0.000014
    22  H   -0.000014   0.002017  -0.002506   0.625558  -0.023343   0.002016
    23  H    0.000565  -0.002508   0.002016  -0.023343   0.625542  -0.002519
    24  H    0.000002   0.000566  -0.000014   0.002016  -0.002519   0.625591
    25  H   -0.000001  -0.000014   0.000570  -0.002494   0.002016  -0.023349
    26  H    0.000000  -0.000001   0.000002   0.000570  -0.000014   0.002017
    27  H    0.000000   0.000002  -0.000001  -0.000014   0.000565  -0.002512
    28  H    0.000000   0.000000   0.000000  -0.000001   0.000002   0.000564
    29  H    0.000000   0.000000   0.000000   0.000002  -0.000001  -0.000014
    30  H    0.000000   0.000000   0.000000   0.000000   0.000000  -0.000001
    31  H    0.000000   0.000000   0.000000   0.000000   0.000000   0.000002
    32  H    0.000000   0.000000   0.000000   0.000000   0.000000   0.000000
    33  H    0.000000   0.000000   0.000000   0.000000   0.000000   0.000000
    34  H    0.000000   0.000000   0.000000   0.000000   0.000000   0.000000
    35  H    0.000000   0.000000   0.000000   0.000000   0.000000   0.000000
    36  H    0.000000   0.000000   0.000000   0.000000   0.000000   0.000000
    37  H    0.000000   0.000000   0.000000   0.000000   0.000000   0.000000
    38  H    0.000000   0.000000   0.000000   0.000000   0.000000   0.000000
    39  H    0.000000   0.000000   0.000000   0.000000   0.000000   0.000000
    40  H    0.000000   0.000000   0.000000   0.000000   0.000000   0.000000
    41  H    0.000000   0.000000   0.000000   0.000000   0.000000   0.000000
    42  H    0.000000   0.000000   0.000000   0.000000   0.000000   0.000000
    43  H    0.000000   0.000000   0.000000   0.000000   0.000000   0.000000
    44  H    0.000000   0.000000   0.000000   0.000000   0.000000   0.000000
              25         26         27         28         29         30
     1  C    0.000000   0.000000   0.000000   0.000000   0.000000   0.000000
     2  C    0.000010   0.000000   0.000000   0.000000   0.000000   0.000000
     3  C   -0.002469   0.000010   0.000010   0.000000   0.000000   0.000000
     4  C   -0.022185  -0.002478  -0.002455   0.000010   0.000010   0.000000
     5  C    0.380439  -0.022207  -0.022191  -0.002426  -0.002472   0.000010
     6  C   -0.022179   0.380444   0.380436  -0.022169  -0.022181  -0.002484
     7  C   -0.002462  -0.022194  -0.022187   0.380437   0.380439  -0.022205
     8  C    0.000010  -0.002491  -0.002444  -0.022167  -0.022182   0.380439
     9  C    0.000000   0.000010   0.000010  -0.002432  -0.002464  -0.022203
    10  C    0.000000   0.000000   0.000000   0.000010   0.000010  -0.002494
    11  C    0.000000   0.000000   0.000000   0.000000   0.000000   0.000010
    12  C    0.000000   0.000000   0.000000   0.000000   0.000000   0.000000
    13  C    0.000000   0.000000   0.000000   0.000000   0.000000   0.000000
    14  C    0.000000   0.000000   0.000000   0.000000   0.000000   0.000000
    15  H    0.000000   0.000000   0.000000   0.000000   0.000000   0.000000
    16  H    0.000000   0.000000   0.000000   0.000000   0.000000   0.000000
    17  H    0.000000   0.000000   0.000000   0.000000   0.000000   0.000000
    18  H    0.000002   0.000000   0.000000   0.000000   0.000000   0.000000
    19  H   -0.000001   0.000000   0.000000   0.000000   0.000000   0.000000
    20  H   -0.000014  -0.000001   0.000002   0.000000   0.000000   0.000000
    21  H    0.000570   0.000002  -0.000001   0.000000   0.000000   0.000000
    22  H   -0.002494   0.000570  -0.000014  -0.000001   0.000002   0.000000
    23  H    0.002016  -0.000014   0.000565   0.000002  -0.000001   0.000000
    24  H   -0.023349   0.002017  -0.002512   0.000564  -0.000014  -0.000001
    25  H    0.625639  -0.002503   0.002017  -0.000013   0.000570   0.000003
    26  H   -0.002503   0.625744  -0.023346   0.002016  -0.002488   0.000572
    27  H    0.002017  -0.023346   0.625709  -0.002525   0.002017  -0.000014
    28  H   -0.000013   0.002016  -0.002525   0.625624  -0.023350   0.002017
    29  H    0.000570  -0.002488   0.002017  -0.023350   0.625675  -0.002501
    30  H    0.000003   0.000572  -0.000014   0.002017  -0.002501   0.625780
    31  H   -0.000001  -0.000014   0.000564  -0.002514   0.002017  -0.023346
    32  H    0.000000  -0.000001   0.000002   0.000563  -0.000013   0.002017
    33  H    0.000000   0.000002  -0.000001  -0.000014   0.000571  -0.002488
    34  H    0.000000   0.000000   0.000000  -0.000001   0.000003   0.000572
    35  H    0.000000   0.000000   0.000000   0.000002  -0.000001  -0.000014
    36  H    0.000000   0.000000   0.000000   0.000000   0.000000  -0.000001
    37  H    0.000000   0.000000   0.000000   0.000000   0.000000   0.000002
    38  H    0.000000   0.000000   0.000000   0.000000   0.000000   0.000000
    39  H    0.000000   0.000000   0.000000   0.000000   0.000000   0.000000
    40  H    0.000000   0.000000   0.000000   0.000000   0.000000   0.000000
    41  H    0.000000   0.000000   0.000000   0.000000   0.000000   0.000000
    42  H    0.000000   0.000000   0.000000   0.000000   0.000000   0.000000
    43  H    0.000000   0.000000   0.000000   0.000000   0.000000   0.000000
    44  H    0.000000   0.000000   0.000000   0.000000   0.000000   0.000000
              31         32         33         34         35         36
     1  C    0.000000   0.000000   0.000000   0.000000   0.000000   0.000000
     2  C    0.000000   0.000000   0.000000   0.000000   0.000000   0.000000
     3  C    0.000000   0.000000   0.000000   0.000000   0.000000   0.000000
     4  C    0.000000   0.000000   0.000000   0.000000   0.000000   0.000000
     5  C    0.000010   0.000000   0.000000   0.000000   0.000000   0.000000
     6  C   -0.002452   0.000010   0.000010   0.000000   0.000000   0.000000
     7  C   -0.022187  -0.002423  -0.002472   0.000010   0.000010   0.000000
     8  C    0.380439  -0.022169  -0.022177  -0.002483  -0.002452   0.000010
     9  C   -0.022192   0.380437   0.380442  -0.022193  -0.022180  -0.002430
    10  C   -0.002444  -0.022168  -0.022185   0.380438   0.380442  -0.022161
    11  C    0.000010  -0.002435  -0.002464  -0.022206  -0.022195   0.380441
    12  C    0.000000   0.000010   0.000010  -0.002486  -0.002447  -0.022168
    13  C    0.000000   0.000000   0.000000   0.000010   0.000010  -0.002446
    14  C    0.000000   0.000000   0.000000   0.000000   0.000000   0.000010
    15  H    0.000000   0.000000   0.000000   0.000000   0.000000   0.000000
    16  H    0.000000   0.000000   0.000000   0.000000   0.000000   0.000000
    17  H    0.000000   0.000000   0.000000   0.000000   0.000000   0.000000
    18  H    0.000000   0.000000   0.000000   0.000000   0.000000   0.000000
    19  H    0.000000   0.000000   0.000000   0.000000   0.000000   0.000000
    20  H    0.000000   0.000000   0.000000   0.000000   0.000000   0.000000
    21  H    0.000000   0.000000   0.000000   0.000000   0.000000   0.000000
    22  H    0.000000   0.000000   0.000000   0.000000   0.000000   0.000000
    23  H    0.000000   0.000000   0.000000   0.000000   0.000000   0.000000
    24  H    0.000002   0.000000   0.000000   0.000000   0.000000   0.000000
    25  H   -0.000001   0.000000   0.000000   0.000000   0.000000   0.000000
    26  H   -0.000014  -0.000001   0.000002   0.000000   0.000000   0.000000
    27  H    0.000564   0.000002  -0.000001   0.000000   0.000000   0.000000
    28  H   -0.002514   0.000563  -0.000014  -0.000001   0.000002   0.000000
    29  H    0.002017  -0.000013   0.000571   0.000003  -0.000001   0.000000
    30  H   -0.023346   0.002017  -0.002488   0.000572  -0.000014  -0.000001
    31  H    0.625721  -0.002527   0.002017  -0.000014   0.000564   0.000002
    32  H   -0.002527   0.625610  -0.023350   0.002016  -0.002513   0.000564
    33  H    0.002017  -0.023350   0.625654  -0.002501   0.002017  -0.000013
    34  H   -0.000014   0.002016  -0.002501   0.625725  -0.023346   0.002017
    35  H    0.000564  -0.002513   0.002017  -0.023346   0.625669  -0.002523
    36  H    0.000002   0.000564  -0.000013   0.002017  -0.002523   0.625476
    37  H   -0.000001  -0.000014   0.000570  -0.002492   0.002017  -0.023345
    38  H    0.000000  -0.000001   0.000002   0.000571  -0.000014   0.002015
    39  H    0.000000   0.000002  -0.000001  -0.000014   0.000566  -0.002508
    40  H    0.000000   0.000000   0.000000  -0.000001   0.000002   0.000564
    41  H    0.000000   0.000000   0.000000   0.000002  -0.000001  -0.000014
    42  H    0.000000   0.000000   0.000000   0.000000   0.000000   0.000002
    43  H    0.000000   0.000000   0.000000   0.000000   0.000000   0.000000
    44  H    0.000000   0.000000   0.000000   0.000000   0.000000  -0.000001
              37         38         39         40         41         42
     1  C    0.000000   0.000000   0.000000   0.000000   0.000000   0.000000
     2  C    0.000000   0.000000   0.000000   0.000000   0.000000   0.000000
     3  C    0.000000   0.000000   0.000000   0.000000   0.000000   0.000000
     4  C    0.000000   0.000000   0.000000   0.000000   0.000000   0.000000
     5  C    0.000000   0.000000   0.000000   0.000000   0.000000   0.000000
     6  C    0.000000   0.000000   0.000000   0.000000   0.000000   0.000000
     7  C    0.000000   0.000000   0.000000   0.000000   0.000000   0.000000
     8  C    0.000010   0.000000   0.000000   0.000000   0.000000   0.000000
     9  C   -0.002470   0.000010   0.000010   0.000000   0.000000   0.000000
    10  C   -0.022165  -0.002473  -0.002455   0.000010   0.000010   0.000000
    11  C    0.380450  -0.022148  -0.022142  -0.002418  -0.002437   0.000011
    12  C   -0.022183   0.380436   0.380441  -0.022110  -0.022109  -0.002475
    13  C   -0.002461  -0.022229  -0.022221   0.381091   0.381096  -0.020783
    14  C    0.000010  -0.002442  -0.002424  -0.022672  -0.022680   0.381487
    15  H    0.000000   0.000000   0.000000   0.000000   0.000000   0.000000
    16  H    0.000000   0.000000   0.000000   0.000000   0.000000   0.000000
    17  H    0.000000   0.000000   0.000000   0.000000   0.000000   0.000000
    18  H    0.000000   0.000000   0.000000   0.000000   0.000000   0.000000
    19  H    0.000000   0.000000   0.000000   0.000000   0.000000   0.000000
    20  H    0.000000   0.000000   0.000000   0.000000   0.000000   0.000000
    21  H    0.000000   0.000000   0.000000   0.000000   0.000000   0.000000
    22  H    0.000000   0.000000   0.000000   0.000000   0.000000   0.000000
    23  H    0.000000   0.000000   0.000000   0.000000   0.000000   0.000000
    24  H    0.000000   0.000000   0.000000   0.000000   0.000000   0.000000
    25  H    0.000000   0.000000   0.000000   0.000000   0.000000   0.000000
    26  H    0.000000   0.000000   0.000000   0.000000   0.000000   0.000000
    27  H    0.000000   0.000000   0.000000   0.000000   0.000000   0.000000
    28  H    0.000000   0.000000   0.000000   0.000000   0.000000   0.000000
    29  H    0.000000   0.000000   0.000000   0.000000   0.000000   0.000000
    30  H    0.000002   0.000000   0.000000   0.000000   0.000000   0.000000
    31  H   -0.000001   0.000000   0.000000   0.000000   0.000000   0.000000
    32  H   -0.000014  -0.000001   0.000002   0.000000   0.000000   0.000000
    33  H    0.000570   0.000002  -0.000001   0.000000   0.000000   0.000000
    34  H   -0.002492   0.000571  -0.000014  -0.000001   0.000002   0.000000
    35  H    0.002017  -0.000014   0.000566   0.000002  -0.000001   0.000000
    36  H   -0.023345   0.002015  -0.002508   0.000564  -0.000014   0.000002
    37  H    0.625496  -0.002503   0.002016  -0.000014   0.000567  -0.000001
    38  H   -0.002503   0.625118  -0.023318   0.002017  -0.002492  -0.000028
    39  H    0.002016  -0.023318   0.625080  -0.002507   0.002017   0.000590
    40  H   -0.000014   0.002017  -0.002507   0.623542  -0.023106  -0.002557
    41  H    0.000567  -0.002492   0.002017  -0.023106   0.623546   0.002066
    42  H   -0.000001  -0.000028   0.000590  -0.002557   0.002066   0.612795
    43  H    0.000000   0.000013   0.000013  -0.002482  -0.002482  -0.021125
    44  H    0.000002   0.000592  -0.000028   0.002066  -0.002560  -0.021310
              43         44
     1  C    0.000000   0.000000
     2  C    0.000000   0.000000
     3  C    0.000000   0.000000
     4  C    0.000000   0.000000
     5  C    0.000000   0.000000
     6  C    0.000000   0.000000
     7  C    0.000000   0.000000
     8  C    0.000000   0.000000
     9  C    0.000000   0.000000
    10  C    0.000000   0.000000
    11  C   -0.000019   0.000011
    12  C    0.001443  -0.002477
    13  C   -0.020307  -0.020785
    14  C    0.380980   0.381483
    15  H    0.000000   0.000000
    16  H    0.000000   0.000000
    17  H    0.000000   0.000000
    18  H    0.000000   0.000000
    19  H    0.000000   0.000000
    20  H    0.000000   0.000000
    21  H    0.000000   0.000000
    22  H    0.000000   0.000000
    23  H    0.000000   0.000000
    24  H    0.000000   0.000000
    25  H    0.000000   0.000000
    26  H    0.000000   0.000000
    27  H    0.000000   0.000000
    28  H    0.000000   0.000000
    29  H    0.000000   0.000000
    30  H    0.000000   0.000000
    31  H    0.000000   0.000000
    32  H    0.000000   0.000000
    33  H    0.000000   0.000000
    34  H    0.000000   0.000000
    35  H    0.000000   0.000000
    36  H    0.000000  -0.000001
    37  H    0.000000   0.000002
    38  H    0.000013   0.000592
    39  H    0.000013  -0.000028
    40  H   -0.002482   0.002066
    41  H   -0.002482  -0.002560
    42  H   -0.021125  -0.021310
    43  H    0.613284  -0.021126
    44  H   -0.021126   0.612812
 Mulliken charges:
               1
     1  C   -0.222250
     2  C   -0.131766
     3  C   -0.132159
     4  C   -0.132560
     5  C   -0.132640
     6  C   -0.132573
     7  C   -0.132647
     8  C   -0.132570
     9  C   -0.132646
    10  C   -0.132575
    11  C   -0.132610
    12  C   -0.132121
    13  C   -0.131788
    14  C   -0.222240
    15  H    0.071808
    16  H    0.071328
    17  H    0.071331
    18  H    0.068567
    19  H    0.068565
    20  H    0.066896
    21  H    0.066883
    22  H    0.066490
    23  H    0.066492
    24  H    0.066407
    25  H    0.066393
    26  H    0.066350
    27  H    0.066357
    28  H    0.066367
    29  H    0.066353
    30  H    0.066329
    31  H    0.066345
    32  H    0.066381
    33  H    0.066371
    34  H    0.066371
    35  H    0.066388
    36  H    0.066509
    37  H    0.066506
    38  H    0.066871
    39  H    0.066883
    40  H    0.068574
    41  H    0.068575
    42  H    0.071327
    43  H    0.071809
    44  H    0.071320
 Sum of Mulliken charges =   0.00000
 Mulliken charges with hydrogens summed into heavy atoms:
               1
[...]
    11  C    0.000000   0.000000   0.000000   0.000000   0.000000   0.000000
    12  C    0.000000   0.000000   0.000000   0.000000   0.000000   0.000000
    13  C    0.000000   0.000000   0.000000   0.000000   0.000000   0.000000
    14  C    0.000000   0.000000   0.000000   0.000000   0.000000   0.000000
    15  H   -0.002052   0.000006   0.000006   0.000000   0.000000   0.000000
    16  H    0.001807  -0.000012   0.000534   0.000002   0.000000   0.000000
    17  H   -0.002171   0.000534  -0.000012   0.000000   0.000002   0.000000
    18  H   -0.022909   0.001817  -0.002204   0.000541  -0.000002   0.000000
    19  H    0.625070  -0.002204   0.001817  -0.000002   0.000541   0.000002
    20  H   -0.002204   0.626462  -0.022995   0.001812  -0.002193   0.000533
    21  H    0.001817  -0.022995   0.626462  -0.002193   0.001812  -0.000001
    22  H   -0.000002   0.001812  -0.002193   0.626609  -0.023012   0.001812
    23  H    0.000541  -0.002193   0.001812  -0.023012   0.626609  -0.002195
    24  H    0.000002   0.000533  -0.000001   0.001812  -0.002195   0.626573
    25  H    0.000000  -0.000001   0.000533  -0.002195   0.001812  -0.023008
    26  H    0.000000   0.000000   0.000002   0.000534  -0.000001   0.001812
    27  H    0.000000   0.000002   0.000000  -0.000001   0.000534  -0.002195
    28  H    0.000000   0.000000   0.000000   0.000000   0.000002   0.000534
    29  H    0.000000   0.000000   0.000000   0.000002   0.000000  -0.000001
    30  H    0.000000   0.000000   0.000000   0.000000   0.000000   0.000000
    31  H    0.000000   0.000000   0.000000   0.000000   0.000000   0.000002
    32  H    0.000000   0.000000   0.000000   0.000000   0.000000   0.000000
    33  H    0.000000   0.000000   0.000000   0.000000   0.000000   0.000000
    34  H    0.000000   0.000000   0.000000   0.000000   0.000000   0.000000
    35  H    0.000000   0.000000   0.000000   0.000000   0.000000   0.000000
    36  H    0.000000   0.000000   0.000000   0.000000   0.000000   0.000000
    37  H    0.000000   0.000000   0.000000   0.000000   0.000000   0.000000
    38  H    0.000000   0.000000   0.000000   0.000000   0.000000   0.000000
    39  H    0.000000   0.000000   0.000000   0.000000   0.000000   0.000000
    40  H    0.000000   0.000000   0.000000   0.000000   0.000000   0.000000
    41  H    0.000000   0.000000   0.000000   0.000000   0.000000   0.000000
    42  H    0.000000   0.000000   0.000000   0.000000   0.000000   0.000000
    43  H    0.000000   0.000000   0.000000   0.000000   0.000000   0.000000
    44  H    0.000000   0.000000   0.000000   0.000000   0.000000   0.000000
              25         26         27         28         29         30
     1  C    0.000000   0.000000   0.000000   0.000000   0.000000   0.000000
     2  C    0.000005   0.000000   0.000000   0.000000   0.000000   0.000000
     3  C   -0.001946   0.000005   0.000005   0.000000   0.000000   0.000000
     4  C   -0.021228  -0.001945  -0.001945   0.000005   0.000005   0.000000
     5  C    0.377523  -0.021227  -0.021227  -0.001945  -0.001945   0.000005
     6  C   -0.021225   0.377521   0.377521  -0.021226  -0.021226  -0.001945
     7  C   -0.001946  -0.021224  -0.021224   0.377521   0.377521  -0.021227
     8  C    0.000005  -0.001945  -0.001945  -0.021226  -0.021227   0.377521
     9  C    0.000000   0.000005   0.000005  -0.001945  -0.001945  -0.021226
    10  C    0.000000   0.000000   0.000000   0.000005   0.000005  -0.001945
    11  C    0.000000   0.000000   0.000000   0.000000   0.000000   0.000005
    12  C    0.000000   0.000000   0.000000   0.000000   0.000000   0.000000
    13  C    0.000000   0.000000   0.000000   0.000000   0.000000   0.000000
    14  C    0.000000   0.000000   0.000000   0.000000   0.000000   0.000000
    15  H    0.000000   0.000000   0.000000   0.000000   0.000000   0.000000
    16  H    0.000000   0.000000   0.000000   0.000000   0.000000   0.000000
    17  H    0.000000   0.000000   0.000000   0.000000   0.000000   0.000000
    18  H    0.000002   0.000000   0.000000   0.000000   0.000000   0.000000
    19  H    0.000000   0.000000   0.000000   0.000000   0.000000   0.000000
    20  H   -0.000001   0.000000   0.000002   0.000000   0.000000   0.000000
    21  H    0.000533   0.000002   0.000000   0.000000   0.000000   0.000000
    22  H   -0.002195   0.000534  -0.000001   0.000000   0.000002   0.000000
    23  H    0.001812  -0.000001   0.000534   0.000002   0.000000   0.000000
    24  H   -0.023008   0.001812  -0.002195   0.000534  -0.000001   0.000000
    25  H    0.626573  -0.002195   0.001812  -0.000001   0.000534   0.000002
    26  H   -0.002195   0.626592  -0.023010   0.001812  -0.002194   0.000534
    27  H    0.001812  -0.023010   0.626592  -0.002194   0.001812  -0.000001
    28  H   -0.000001   0.001812  -0.002194   0.626594  -0.023010   0.001812
    29  H    0.000534  -0.002194   0.001812  -0.023010   0.626594  -0.002195
    30  H    0.000002   0.000534  -0.000001   0.001812  -0.002195   0.626594
    31  H    0.000000  -0.000001   0.000534  -0.002195   0.001812  -0.023010
    32  H    0.000000   0.000000   0.000002   0.000534  -0.000001   0.001812
    33  H    0.000000   0.000002   0.000000  -0.000001   0.000534  -0.002194
    34  H    0.000000   0.000000   0.000000   0.000000   0.000002   0.000534
    35  H    0.000000   0.000000   0.000000   0.000002   0.000000  -0.000001
    36  H    0.000000   0.000000   0.000000   0.000000   0.000000   0.000000
    37  H    0.000000   0.000000   0.000000   0.000000   0.000000   0.000002
    38  H    0.000000   0.000000   0.000000   0.000000   0.000000   0.000000
    39  H    0.000000   0.000000   0.000000   0.000000   0.000000   0.000000
    40  H    0.000000   0.000000   0.000000   0.000000   0.000000   0.000000
    41  H    0.000000   0.000000   0.000000   0.000000   0.000000   0.000000
    42  H    0.000000   0.000000   0.000000   0.000000   0.000000   0.000000
    43  H    0.000000   0.000000   0.000000   0.000000   0.000000   0.000000
    44  H    0.000000   0.000000   0.000000   0.000000   0.000000   0.000000
              31         32         33         34         35         36
     1  C    0.000000   0.000000   0.000000   0.000000   0.000000   0.000000
     2  C    0.000000   0.000000   0.000000   0.000000   0.000000   0.000000
     3  C    0.000000   0.000000   0.000000   0.000000   0.000000   0.000000
     4  C    0.000000   0.000000   0.000000   0.000000   0.000000   0.000000
     5  C    0.000005   0.000000   0.000000   0.000000   0.000000   0.000000
     6  C   -0.001945   0.000005   0.000005   0.000000   0.000000   0.000000
     7  C   -0.021227  -0.001945  -0.001945   0.000005   0.000005   0.000000
     8  C    0.377521  -0.021224  -0.021224  -0.001946  -0.001946   0.000005
     9  C   -0.021226   0.377521   0.377521  -0.021225  -0.021225  -0.001945
    10  C   -0.001945  -0.021227  -0.021227   0.377523   0.377523  -0.021217
    11  C    0.000005  -0.001945  -0.001945  -0.021228  -0.021228   0.377509
    12  C    0.000000   0.000005   0.000005  -0.001946  -0.001946  -0.021230
    13  C    0.000000   0.000000   0.000000   0.000005   0.000005  -0.001947
    14  C    0.000000   0.000000   0.000000   0.000000   0.000000   0.000005
    15  H    0.000000   0.000000   0.000000   0.000000   0.000000   0.000000
    16  H    0.000000   0.000000   0.000000   0.000000   0.000000   0.000000
    17  H    0.000000   0.000000   0.000000   0.000000   0.000000   0.000000
    18  H    0.000000   0.000000   0.000000   0.000000   0.000000   0.000000
    19  H    0.000000   0.000000   0.000000   0.000000   0.000000   0.000000
    20  H    0.000000   0.000000   0.000000   0.000000   0.000000   0.000000
    21  H    0.000000   0.000000   0.000000   0.000000   0.000000   0.000000
    22  H    0.000000   0.000000   0.000000   0.000000   0.000000   0.000000
    23  H    0.000000   0.000000   0.000000   0.000000   0.000000   0.000000
    24  H    0.000002   0.000000   0.000000   0.000000   0.000000   0.000000
    25  H    0.000000   0.000000   0.000000   0.000000   0.000000   0.000000
    26  H   -0.000001   0.000000   0.000002   0.000000   0.000000   0.000000
    27  H    0.000534   0.000002   0.000000   0.000000   0.000000   0.000000
    28  H   -0.002195   0.000534  -0.000001   0.000000   0.000002   0.000000
    29  H    0.001812  -0.000001   0.000534   0.000002   0.000000   0.000000
    30  H   -0.023010   0.001812  -0.002194   0.000534  -0.000001   0.000000
    31  H    0.626594  -0.002194   0.001812  -0.000001   0.000534   0.000002
    32  H   -0.002194   0.626592  -0.023010   0.001812  -0.002195   0.000534
    33  H    0.001812  -0.023010   0.626592  -0.002195   0.001812  -0.000001
    34  H   -0.000001   0.001812  -0.002195   0.626573  -0.023008   0.001812
    35  H    0.000534  -0.002195   0.001812  -0.023008   0.626573  -0.002195
    36  H    0.000002   0.000534  -0.000001   0.001812  -0.002195   0.626609
    37  H    0.000000  -0.000001   0.000534  -0.002195   0.001812  -0.023012
    38  H    0.000000   0.000000   0.000002   0.000533  -0.000001   0.001812
    39  H    0.000000   0.000002   0.000000  -0.000001   0.000533  -0.002193
    40  H    0.000000   0.000000   0.000000   0.000000   0.000002   0.000541
    41  H    0.000000   0.000000   0.000000   0.000002   0.000000  -0.000002
    42  H    0.000000   0.000000   0.000000   0.000000   0.000000   0.000002
    43  H    0.000000   0.000000   0.000000   0.000000   0.000000   0.000000
    44  H    0.000000   0.000000   0.000000   0.000000   0.000000   0.000000
              37         38         39         40         41         42
     1  C    0.000000   0.000000   0.000000   0.000000   0.000000   0.000000
     2  C    0.000000   0.000000   0.000000   0.000000   0.000000   0.000000
     3  C    0.000000   0.000000   0.000000   0.000000   0.000000   0.000000
     4  C    0.000000   0.000000   0.000000   0.000000   0.000000   0.000000
     5  C    0.000000   0.000000   0.000000   0.000000   0.000000   0.000000
     6  C    0.000000   0.000000   0.000000   0.000000   0.000000   0.000000
     7  C    0.000000   0.000000   0.000000   0.000000   0.000000   0.000000
     8  C    0.000005   0.000000   0.000000   0.000000   0.000000   0.000000
     9  C   -0.001945   0.000005   0.000005   0.000000   0.000000   0.000000
    10  C   -0.021217  -0.001945  -0.001945   0.000004   0.000004   0.000000
    11  C    0.377509  -0.021209  -0.021209  -0.001942  -0.001942   0.000006
    12  C   -0.021230   0.377532   0.377532  -0.021337  -0.021337  -0.001954
    13  C   -0.001947  -0.021238  -0.021238   0.378131   0.378131  -0.019570
    14  C    0.000005  -0.001921  -0.001921  -0.021187  -0.021187   0.379494
    15  H    0.000000   0.000000   0.000000   0.000000   0.000000   0.000000
    16  H    0.000000   0.000000   0.000000   0.000000   0.000000   0.000000
    17  H    0.000000   0.000000   0.000000   0.000000   0.000000   0.000000
    18  H    0.000000   0.000000   0.000000   0.000000   0.000000   0.000000
    19  H    0.000000   0.000000   0.000000   0.000000   0.000000   0.000000
    20  H    0.000000   0.000000   0.000000   0.000000   0.000000   0.000000
    21  H    0.000000   0.000000   0.000000   0.000000   0.000000   0.000000
    22  H    0.000000   0.000000   0.000000   0.000000   0.000000   0.000000
    23  H    0.000000   0.000000   0.000000   0.000000   0.000000   0.000000
    24  H    0.000000   0.000000   0.000000   0.000000   0.000000   0.000000
    25  H    0.000000   0.000000   0.000000   0.000000   0.000000   0.000000
    26  H    0.000000   0.000000   0.000000   0.000000   0.000000   0.000000
    27  H    0.000000   0.000000   0.000000   0.000000   0.000000   0.000000
    28  H    0.000000   0.000000   0.000000   0.000000   0.000000   0.000000
    29  H    0.000000   0.000000   0.000000   0.000000   0.000000   0.000000
    30  H    0.000002   0.000000   0.000000   0.000000   0.000000   0.000000
    31  H    0.000000   0.000000   0.000000   0.000000   0.000000   0.000000
    32  H   -0.000001   0.000000   0.000002   0.000000   0.000000   0.000000
    33  H    0.000534   0.000002   0.000000   0.000000   0.000000   0.000000
    34  H   -0.002195   0.000533  -0.000001   0.000000   0.000002   0.000000
    35  H    0.001812  -0.000001   0.000533   0.000002   0.000000   0.000000
    36  H   -0.023012   0.001812  -0.002193   0.000541  -0.000002   0.000002
    37  H    0.626609  -0.002193   0.001812  -0.000002   0.000541   0.000000
    38  H   -0.002193   0.626462  -0.022995   0.001817  -0.002204  -0.000012
    39  H    0.001812  -0.022995   0.626462  -0.002204   0.001817   0.000534
    40  H   -0.000002   0.001817  -0.002204   0.625070  -0.022909  -0.002171
    41  H    0.000541  -0.002204   0.001817  -0.022909   0.625070   0.001807
    42  H    0.000000  -0.000012   0.000534  -0.002171   0.001807   0.613508
    43  H    0.000000   0.000006   0.000006  -0.002051  -0.002052  -0.020909
    44  H    0.000002   0.000534  -0.000012   0.001807  -0.002171  -0.021156
              43         44
     1  C    0.000000   0.000000
     2  C    0.000000   0.000000
     3  C    0.000000   0.000000
     4  C    0.000000   0.000000
     5  C    0.000000   0.000000
     6  C    0.000000   0.000000
     7  C    0.000000   0.000000
     8  C    0.000000   0.000000
     9  C    0.000000   0.000000
    10  C    0.000000   0.000000
    11  C   -0.000013   0.000006
    12  C    0.001146  -0.001954
    13  C   -0.018568  -0.019570
    14  C    0.379545   0.379494
    15  H    0.000000   0.000000
    16  H    0.000000   0.000000
    17  H    0.000000   0.000000
    18  H    0.000000   0.000000
    19  H    0.000000   0.000000
    20  H    0.000000   0.000000
    21  H    0.000000   0.000000
    22  H    0.000000   0.000000
    23  H    0.000000   0.000000
    24  H    0.000000   0.000000
    25  H    0.000000   0.000000
    26  H    0.000000   0.000000
    27  H    0.000000   0.000000
    28  H    0.000000   0.000000
    29  H    0.000000   0.000000
    30  H    0.000000   0.000000
    31  H    0.000000   0.000000
    32  H    0.000000   0.000000
    33  H    0.000000   0.000000
    34  H    0.000000   0.000000
    35  H    0.000000   0.000000
    36  H    0.000000   0.000000
    37  H    0.000000   0.000002
    38  H    0.000006   0.000534
    39  H    0.000006  -0.000012
    40  H   -0.002051   0.001807
    41  H   -0.002052  -0.002171
    42  H   -0.020909  -0.021156
    43  H    0.612461  -0.020909
    44  H   -0.020909   0.613508
 Mulliken charges:
               1
     1  C   -0.218026
     2  C   -0.127654
     3  C   -0.129461
     4  C   -0.129927
     5  C   -0.129802
     6  C   -0.129814
     7  C   -0.129813
     8  C   -0.129814
     9  C   -0.129814
    10  C   -0.129802
    11  C   -0.129927
    12  C   -0.129461
    13  C   -0.127654
    14  C   -0.218026
    15  H    0.071337
    16  H    0.070421
    17  H    0.070421
    18  H    0.066433
    19  H    0.066433
    20  H    0.065015
    21  H    0.065015
    22  H    0.064914
    23  H    0.064914
    24  H    0.064946
    25  H    0.064946
    26  H    0.064926
    27  H    0.064926
    28  H    0.064925
    29  H    0.064925
    30  H    0.064925
    31  H    0.064925
    32  H    0.064926
    33  H    0.064926
    34  H    0.064946
    35  H    0.064946
    36  H    0.064914
    37  H    0.064914
    38  H    0.065015
    39  H    0.065015
    40  H    0.066433
    41  H    0.066433
    42  H    0.070421
    43  H    0.071336
    44  H    0.070421
 Sum of Mulliken charges =   0.00000
 Mulliken charges with hydrogens summed into heavy atoms:
               1
     1  C   -0.005847
     2  C    0.005212
     3  C    0.000568
     4  C   -0.000099
     5  C    0.000090
     6  C    0.000039
     7  C    0.000037
     8  C    0.000037
     9  C    0.000039
    10  C    0.000090
    11  C   -0.000099
    12  C    0.000568
    13  C    0.005212
    14  C   -0.005847
 Electronic spatial extent (au):  <R**2>=          12001.7594
 Charge=              0.0000 electrons
 Dipole moment (field-independent basis, Debye):
    X=              0.0000    Y=              0.0000    Z=              0.0000  Tot=              0.0000
 Quadrupole moment (field-independent basis, Debye-Ang):
   XX=            -89.8987   YY=            -88.3279   ZZ=            -86.9027
   XY=              0.2967   XZ=              0.0000   YZ=              0.0000
 Traceless Quadrupole moment (field-independent basis, Debye-Ang):
   XX=             -1.5223   YY=              0.0486   ZZ=              1.4737
   XY=              0.2967   XZ=              0.0000   YZ=              0.0000
 Octapole moment (field-independent basis, Debye-Ang**2):
  XXX=              0.0001  YYY=              0.0000  ZZZ=              0.0000  XYY=              0.0000
  XXY=              0.0000  XXZ=              0.0001  XZZ=              0.0000  YZZ=              0.0000
  YYZ=              0.0000  XYZ=              0.0000
 Hexadecapole moment (field-independent basis, Debye-Ang**3):
 XXXX=         -15324.3813 YYYY=           -300.2971 ZZZZ=           -167.1134 XXXY=             58.6224
 XXXZ=              0.0000 YYYX=              0.4577 YYYZ=              0.0000 ZZZX=              0.0001
 ZZZY=              0.0000 XXYY=          -2567.2154 XXZZ=          -2516.3646 YYZZ=            -67.2711
 XXYZ=             -0.0001 YYXZ=              0.0000 ZZXY=             -5.4542
 N-N= 8.218029860852D+02 E-N=-2.901076948300D+03  KE= 5.352092228531D+02
 1\1\GINC-PC-AVL46\FOpt\RB3LYP\STO-3G\C14H30\BING\28-Jan-2019\0\\# opt(
 tight) b3lyp/sto-3g\\c14h30\\0,1\C,0.0415121718,-1.1299232349,-2.53482
 34336\C,0.4670261633,-2.5018660186,-1.9366945364\C,1.74516218,-2.39132
 69823,-1.0476614523\C,2.1716582267,-3.7676649713,-0.4478917613\C,3.449
 803773,-3.6566853127,0.4410527036\C,3.8764110286,-5.0330953505,1.04091
 29499\C,5.1545927678,-4.9219833588,1.9298494875\C,5.5812529829,-6.2983
 69268,2.5297368966\C,6.8594374796,-6.18726091,3.4186699076\C,7.2860456
 023,-7.5636749258,4.0185204694\C,8.5641985197,-7.4527053689,4.90745557
 71\C,8.9906960228,-8.829050558,5.5072077593\C,10.2688403015,-8.7185257
 29,6.3962307494\C,10.694356203,-10.0904779328,6.9943367794\H,-0.860970
 1725,-1.2407788601,-3.1555255541\H,0.8440626795,-0.7141350989,-3.16319
 4354\H,-0.1769323763,-0.407479378,-1.7334658384\H,0.6556771263,-3.2160
 955385,-2.7572336344\H,-0.3617786431,-2.9105038719,-1.332463563\H,1.55
 70787358,-1.6776709278,-0.2264689276\H,2.574648345,-1.9832941338,-1.65
 13992549\H,2.35942174,-4.4810678242,-1.2693899041\H,1.3418314758,-4.17
 54397855,0.1555693593\H,3.2619963607,-2.9432622326,1.2625136368\H,4.27
 95838174,-3.2488882059,-0.1624442912\H,4.0642286997,-5.746518755,0.219
 4540567\H,3.0466382651,-5.4408920295,1.6444213052\H,4.966764668,-4.208
 5488732,2.7512963047\H,5.984351202,-4.5141732296,1.3263308962\H,5.7690
 790862,-7.0118028991,1.7082889877\H,4.751495281,-6.70617956,3.13325654
 03\H,6.671623772,-5.473840623,4.2401325055\H,7.689208416,-5.7794628291
 ,2.815160125\H,7.4738457229,-8.2770933616,3.1970539271\H,6.4562685632,
 -7.971473754,4.6220205581\H,8.3764435898,-6.7393092166,5.7289615492\H,
 9.394021429,-7.0449275287,4.3039912989\H,9.1787707286,-9.5426983949,4.
 686006139\H,8.1612135635,-9.2370874527,6.1109479734\H,10.0801977195,-8
 .0043071191,7.2167812445\H,11.0976407927,-8.3098812573,5.7919983159\H,
 9.8918109447,-10.506271504,7.6227108265\H,11.5968457144,-9.9796340112,
 7.6150305674\H,10.9127893302,-10.8129118231,6.192967108\\Version=ES64L
 -G09RevD.01\State=1-A\HF=-545.063902\RMSD=7.588e-09\RMSF=1.262e-07\Dip
 ole=0.0000001,-0.0000006,-0.0000006\Quadrupole=0.0309112,-0.4095297,0.
 3786185,0.3422249,-0.8337543,0.5672179\PG=C01 [X(C14H30)]\\@


 NOTHING MAKES A PERSON MORE PRODUCTIVE THAN THE LAST MINUTE.
 Job cpu time:       0 days  0 hours  3 minutes 53.0 seconds.
 File lengths (MBytes):  RWF=      9 Int=      0 D2E=      0 Chk=      3 Scr=      1
 Normal termination of Gaussian 09 at Mon Jan 28 19:30:00 2019.
