 Entering Gaussian System, Link 0=g09
 Input=c14h16.com
 Output=c14h16.out
 Initial command:
 /apps/g09_d.01/g09/l1.exe "/data/scratch/Gau-51424.inp" -scrdir="/data/scratch/"
 Entering Link 1 = /apps/g09_d.01/g09/l1.exe PID=     51434.
  
 Copyright (c) 1988,1990,1992,1993,1995,1998,2003,2009,2013,
            Gaussian, Inc.  All Rights Reserved.
  
 This is part of the Gaussian(R) 09 program.  It is based on
 the Gaussian(R) 03 system (copyright 2003, Gaussian, Inc.),
 the Gaussian(R) 98 system (copyright 1998, Gaussian, Inc.),
 the Gaussian(R) 94 system (copyright 1995, Gaussian, Inc.),
 the Gaussian 92(TM) system (copyright 1992, Gaussian, Inc.),
 the Gaussian 90(TM) system (copyright 1990, Gaussian, Inc.),
 the Gaussian 88(TM) system (copyright 1988, Gaussian, Inc.),
 the Gaussian 86(TM) system (copyright 1986, Carnegie Mellon
 University), and the Gaussian 82(TM) system (copyright 1983,
 Carnegie Mellon University). Gaussian is a federally registered
 trademark of Gaussian, Inc.
  
 This software contains proprietary and confidential information,
 including trade secrets, belonging to Gaussian, Inc.
  
 This software is provided under written license and may be
 used, copied, transmitted, or stored only in accord with that
 written license.
  
 The following legend is applicable only to US Government
 contracts under FAR:
  
                    RESTRICTED RIGHTS LEGEND
  
 Use, reproduction and disclosure by the US Government is
 subject to restrictions as set forth in subparagraphs (a)
 and (c) of the Commercial Computer Software - Restricted
 Rights clause in FAR 52.227-19.
  
 Gaussian, Inc.
 340 Quinnipiac St., Bldg. 40, Wallingford CT 06492
  
  
 ---------------------------------------------------------------
 Warning -- This program may not be used in any manner that
 competes with the business of Gaussian, Inc. or will provide
 assistance to any competitor of Gaussian, Inc.  The licensee
 of this program is prohibited from giving any competitor of
 Gaussian, Inc. access to this program.  By using this program,
 the user acknowledges that Gaussian, Inc. is engaged in the
 business of creating and licensing software in the field of
 computational chemistry and represents and warrants to the
 licensee that it is not a competitor of Gaussian, Inc. and that
 it will not use this program in any manner prohibited above.
 ---------------------------------------------------------------
  

 Cite this work as:
 Gaussian 09, Revision D.01,
 M. J. Frisch, G. W. Trucks, H. B. Schlegel, G. E. Scuseria, 
 M. A. Robb, J. R. Cheeseman, G. Scalmani, V. Barone, B. Mennucci, 
 G. A. Petersson, H. Nakatsuji, M. Caricato, X. Li, H. P. Hratchian, 
 A. F. Izmaylov, J. Bloino, G. Zheng, J. L. Sonnenberg, M. Hada, 
 M. Ehara, K. Toyota, R. Fukuda, J. Hasegawa, M. Ishida, T. Nakajima, 
 Y. Honda, O. Kitao, H. Nakai, T. Vreven, J. A. Montgomery, Jr., 
 J. E. Peralta, F. Ogliaro, M. Bearpark, J. J. Heyd, E. Brothers, 
 K. N. Kudin, V. N. Staroverov, T. Keith, R. Kobayashi, J. Normand, 
 K. Raghavachari, A. Rendell, J. C. Burant, S. S. Iyengar, J. Tomasi, 
 M. Cossi, N. Rega, J. M. Millam, M. Klene, J. E. Knox, J. B. Cross, 
 V. Bakken, C. Adamo, J. Jaramillo, R. Gomperts, R. E. Stratmann, 
 O. Yazyev, A. J. Austin, R. Cammi, C. Pomelli, J. W. Ochterski, 
 R. L. Martin, K. Morokuma, V. G. Zakrzewski, G. A. Voth, 
 P. Salvador, J. J. Dannenberg, S. Dapprich, A. D. Daniels, 
 O. Farkas, J. B. Foresman, J. V. Ortiz, J. Cioslowski, 
 and D. J. Fox, Gaussian, Inc., Wallingford CT, 2013.
 
 ******************************************
 Gaussian 09:  ES64L-G09RevD.01 24-Apr-2013
                28-Jan-2019 
 ******************************************
 %nproc=6
 Will use up to    6 processors via shared memory.
 -------------------------
 # opt(tight) b3lyp/sto-3g
 -------------------------
 1/7=10,14=-1,18=20,19=15,26=3,38=1/1,3;
 2/9=110,12=2,17=6,18=5,40=1/2;
 3/6=3,11=2,16=1,25=1,30=1,71=1,74=-5/1,2,3;
 4//1;
 5/5=2,38=5/2;
 6/7=2,8=2,9=2,10=2,28=1/1;
 7//1,2,3,16;
 1/7=10,14=-1,18=20,19=15,26=3/3(2);
 2/9=110/2;
 99//99;
 2/9=110/2;
 3/6=3,11=2,16=1,25=1,30=1,71=1,74=-5/1,2,3;
 4/5=5,16=3,69=1/1;
 5/5=2,38=5/2;
 7//1,2,3,16;
 1/7=10,14=-1,18=20,19=15,26=3/3(-5);
 2/9=110/2;
 6/7=2,8=2,9=2,10=2,19=2,28=1/1;
 99/9=1/99;
 ------
 c14h16
 ------
 Symbolic Z-matrix:
 Charge =  0 Multiplicity = 1
 C                     1.21789  -0.25949  -0.29603 
 C                     1.77494   0.5634   -1.18757 
 C                     3.24083   0.74119  -1.24596 
 C                     3.79297   1.56859  -2.14318 
 C                     5.25852   1.75057  -2.20643 
 C                     5.80366   2.57975  -3.10641 
 C                     7.26787   2.76849  -3.17757 
 C                     7.80328   3.60009  -4.08133 
 C                     9.26579   3.79675  -4.16179 
 C                     9.79139   4.63073  -5.06928 
 C                     11.25238   4.83423  -5.15776 
 C                     11.77083   5.66985  -6.06787 
 C                     13.23064   5.87707  -6.16077 
 C                     13.748    6.70964  -7.06746 
 H                     0.13942  -0.37738  -0.26795 
 H                     1.82876  -0.81765   0.40732 
 H                     1.13522   1.10738  -1.8775 
 H                     3.87436   0.19326  -0.5521 
 H                     3.15734   2.11549  -2.83605 
 H                     5.89686   1.20517  -1.515 
 H                     5.16261   3.12376  -3.7965 
 H                     7.91281   2.22659  -2.48951 
 H                     7.15519   4.14032  -4.76779 
 H                     9.91778   3.25866  -3.47739 
 H                     9.13669   5.16739  -5.75229 
 H                     11.90998   4.2992   -4.47633 
 H                     11.11206   6.20432  -6.74877 
 H                     13.89776   5.34818  -5.48544 
 H                     13.10793   7.25293  -7.75665 
 H                     14.82248   6.85091  -7.1229 
 

 GradGradGradGradGradGradGradGradGradGradGradGradGradGradGradGradGradGrad
 Berny optimization.
 Initialization pass.
                           ----------------------------
                           !    Initial Parameters    !
                           ! (Angstroms and Degrees)  !
 --------------------------                            --------------------------
 ! Name  Definition              Value          Derivative Info.                !
 --------------------------------------------------------------------------------
 ! R1    R(1,2)                  1.335          estimate D2E/DX2                !
 ! R2    R(1,15)                 1.0853         estimate D2E/DX2                !
 ! R3    R(1,16)                 1.086          estimate D2E/DX2                !
 ! R4    R(2,3)                  1.4778         estimate D2E/DX2                !
 ! R5    R(2,17)                 1.0868         estimate D2E/DX2                !
 ! R6    R(3,4)                  1.3396         estimate D2E/DX2                !
 ! R7    R(3,18)                 1.0877         estimate D2E/DX2                !
 ! R8    R(4,5)                  1.4782         estimate D2E/DX2                !
 ! R9    R(4,19)                 1.0877         estimate D2E/DX2                !
 ! R10   R(5,6)                  1.3397         estimate D2E/DX2                !
 ! R11   R(5,20)                 1.0877         estimate D2E/DX2                !
 ! R12   R(6,7)                  1.478          estimate D2E/DX2                !
 ! R13   R(6,21)                 1.0877         estimate D2E/DX2                !
 ! R14   R(7,8)                  1.3398         estimate D2E/DX2                !
 ! R15   R(7,22)                 1.0877         estimate D2E/DX2                !
 ! R16   R(8,9)                  1.4779         estimate D2E/DX2                !
 ! R17   R(8,23)                 1.0877         estimate D2E/DX2                !
 ! R18   R(9,10)                 1.3399         estimate D2E/DX2                !
 ! R19   R(9,24)                 1.0877         estimate D2E/DX2                !
 ! R20   R(10,11)                1.4777         estimate D2E/DX2                !
 ! R21   R(10,25)                1.0877         estimate D2E/DX2                !
 ! R22   R(11,12)                1.3399         estimate D2E/DX2                !
 ! R23   R(11,26)                1.0877         estimate D2E/DX2                !
 ! R24   R(12,13)                1.4774         estimate D2E/DX2                !
 ! R25   R(12,27)                1.0878         estimate D2E/DX2                !
 ! R26   R(13,14)                1.3353         estimate D2E/DX2                !
 ! R27   R(13,28)                1.0867         estimate D2E/DX2                !
 ! R28   R(14,29)                1.0862         estimate D2E/DX2                !
 ! R29   R(14,30)                1.0851         estimate D2E/DX2                !
 ! A1    A(2,1,15)             119.9262         estimate D2E/DX2                !
 ! A2    A(2,1,16)             120.9704         estimate D2E/DX2                !
 ! A3    A(15,1,16)            119.1034         estimate D2E/DX2                !
 ! A4    A(1,2,3)              120.9601         estimate D2E/DX2                !
 ! A5    A(1,2,17)             119.1337         estimate D2E/DX2                !
 ! A6    A(3,2,17)             119.9062         estimate D2E/DX2                !
 ! A7    A(2,3,4)              120.6393         estimate D2E/DX2                !
 ! A8    A(2,3,18)             119.4697         estimate D2E/DX2                !
 ! A9    A(4,3,18)             119.891          estimate D2E/DX2                !
 ! A10   A(3,4,5)              120.888          estimate D2E/DX2                !
 ! A11   A(3,4,19)             119.7573         estimate D2E/DX2                !
 ! A12   A(5,4,19)             119.3547         estimate D2E/DX2                !
 ! A13   A(4,5,6)              120.5573         estimate D2E/DX2                !
 ! A14   A(4,5,20)             119.5346         estimate D2E/DX2                !
 ! A15   A(6,5,20)             119.9081         estimate D2E/DX2                !
 ! A16   A(5,6,7)              120.964          estimate D2E/DX2                !
 ! A17   A(5,6,21)             119.7328         estimate D2E/DX2                !
 ! A18   A(7,6,21)             119.3032         estimate D2E/DX2                !
 ! A19   A(6,7,8)              120.5057         estimate D2E/DX2                !
 ! A20   A(6,7,22)             119.5597         estimate D2E/DX2                !
 ! A21   A(8,7,22)             119.9346         estimate D2E/DX2                !
 ! A22   A(7,8,9)              120.9838         estimate D2E/DX2                !
 ! A23   A(7,8,23)             119.7287         estimate D2E/DX2                !
 ! A24   A(9,8,23)             119.2874         estimate D2E/DX2                !
 ! A25   A(8,9,10)             120.5236         estimate D2E/DX2                !
 ! A26   A(8,9,24)             119.5457         estimate D2E/DX2                !
 ! A27   A(10,9,24)            119.9307         estimate D2E/DX2                !
 ! A28   A(9,10,11)            120.9365         estimate D2E/DX2                !
 ! A29   A(9,10,25)            119.7535         estimate D2E/DX2                !
 ! A30   A(11,10,25)           119.31           estimate D2E/DX2                !
 ! A31   A(10,11,12)           120.6034         estimate D2E/DX2                !
 ! A32   A(10,11,26)           119.504          estimate D2E/DX2                !
 ! A33   A(12,11,26)           119.8926         estimate D2E/DX2                !
 ! A34   A(11,12,13)           120.8316         estimate D2E/DX2                !
 ! A35   A(11,12,27)           119.8189         estimate D2E/DX2                !
 ! A36   A(13,12,27)           119.3495         estimate D2E/DX2                !
 ! A37   A(12,13,14)           120.8647         estimate D2E/DX2                !
 ! A38   A(12,13,28)           119.9518         estimate D2E/DX2                !
 ! A39   A(14,13,28)           119.1835         estimate D2E/DX2                !
 ! A40   A(13,14,29)           120.9571         estimate D2E/DX2                !
 ! A41   A(13,14,30)           119.9681         estimate D2E/DX2                !
 ! A42   A(29,14,30)           119.0748         estimate D2E/DX2                !
 ! D1    D(15,1,2,3)          -179.9993         estimate D2E/DX2                !
 ! D2    D(15,1,2,17)            0.0002         estimate D2E/DX2                !
 ! D3    D(16,1,2,3)            -0.0004         estimate D2E/DX2                !
 ! D4    D(16,1,2,17)          179.9991         estimate D2E/DX2                !
 ! D5    D(1,2,3,4)           -180.0            estimate D2E/DX2                !
 ! D6    D(1,2,3,18)            -0.0005         estimate D2E/DX2                !
 ! D7    D(17,2,3,4)             0.0005         estimate D2E/DX2                !
 ! D8    D(17,2,3,18)          180.0            estimate D2E/DX2                !
 ! D9    D(2,3,4,5)           -179.9999         estimate D2E/DX2                !
 ! D10   D(2,3,4,19)             0.0            estimate D2E/DX2                !
 ! D11   D(18,3,4,5)             0.0007         estimate D2E/DX2                !
 ! D12   D(18,3,4,19)         -179.9994         estimate D2E/DX2                !
 ! D13   D(3,4,5,6)            179.9996         estimate D2E/DX2                !
 ! D14   D(3,4,5,20)            -0.0008         estimate D2E/DX2                !
 ! D15   D(19,4,5,6)            -0.0003         estimate D2E/DX2                !
 ! D16   D(19,4,5,20)          179.9994         estimate D2E/DX2                !
 ! D17   D(4,5,6,7)            179.9999         estimate D2E/DX2                !
 ! D18   D(4,5,6,21)             0.0001         estimate D2E/DX2                !
 ! D19   D(20,5,6,7)             0.0002         estimate D2E/DX2                !
 ! D20   D(20,5,6,21)         -179.9996         estimate D2E/DX2                !
 ! D21   D(5,6,7,8)            179.9992         estimate D2E/DX2                !
 ! D22   D(5,6,7,22)            -0.0002         estimate D2E/DX2                !
 ! D23   D(21,6,7,8)            -0.001          estimate D2E/DX2                !
 ! D24   D(21,6,7,22)          179.9996         estimate D2E/DX2                !
 ! D25   D(6,7,8,9)           -179.9996         estimate D2E/DX2                !
 ! D26   D(6,7,8,23)             0.0003         estimate D2E/DX2                !
 ! D27   D(22,7,8,9)            -0.0001         estimate D2E/DX2                !
 ! D28   D(22,7,8,23)          179.9997         estimate D2E/DX2                !
 ! D29   D(7,8,9,10)           179.9996         estimate D2E/DX2                !
 ! D30   D(7,8,9,24)            -0.0007         estimate D2E/DX2                !
 ! D31   D(23,8,9,10)           -0.0002         estimate D2E/DX2                !
 ! D32   D(23,8,9,24)          179.9994         estimate D2E/DX2                !
 ! D33   D(8,9,10,11)          179.9999         estimate D2E/DX2                !
 ! D34   D(8,9,10,25)            0.0002         estimate D2E/DX2                !
 ! D35   D(24,9,10,11)           0.0002         estimate D2E/DX2                !
 ! D36   D(24,9,10,25)        -179.9994         estimate D2E/DX2                !
 ! D37   D(9,10,11,12)         179.9994         estimate D2E/DX2                !
 ! D38   D(9,10,11,26)           0.0001         estimate D2E/DX2                !
 ! D39   D(25,10,11,12)         -0.001          estimate D2E/DX2                !
 ! D40   D(25,10,11,26)        179.9997         estimate D2E/DX2                !
 ! D41   D(10,11,12,13)       -179.9994         estimate D2E/DX2                !
 ! D42   D(10,11,12,27)          0.0008         estimate D2E/DX2                !
 ! D43   D(26,11,12,13)         -0.0001         estimate D2E/DX2                !
 ! D44   D(26,11,12,27)       -179.9999         estimate D2E/DX2                !
 ! D45   D(11,12,13,14)       -179.9994         estimate D2E/DX2                !
 ! D46   D(11,12,13,28)         -0.0006         estimate D2E/DX2                !
 ! D47   D(27,12,13,14)          0.0004         estimate D2E/DX2                !
 ! D48   D(27,12,13,28)        179.9992         estimate D2E/DX2                !
 ! D49   D(12,13,14,29)         -0.0005         estimate D2E/DX2                !
 ! D50   D(12,13,14,30)       -179.9995         estimate D2E/DX2                !
 ! D51   D(28,13,14,29)       -179.9994         estimate D2E/DX2                !
 ! D52   D(28,13,14,30)          0.0017         estimate D2E/DX2                !
 --------------------------------------------------------------------------------
 Trust Radius=3.00D-01 FncErr=1.00D-07 GrdErr=1.00D-06
 Number of steps in this run=    133 maximum allowed number of steps=    180.
 GradGradGradGradGradGradGradGradGradGradGradGradGradGradGradGradGradGrad

                          Input orientation:                          
 ---------------------------------------------------------------------
 Center     Atomic      Atomic             Coordinates (Angstroms)
 Number     Number       Type             X           Y           Z
 ---------------------------------------------------------------------
      1          6           0        1.217890   -0.259490   -0.296030
      2          6           0        1.774940    0.563400   -1.187570
      3          6           0        3.240830    0.741190   -1.245960
      4          6           0        3.792970    1.568590   -2.143180
      5          6           0        5.258520    1.750570   -2.206430
      6          6           0        5.803660    2.579750   -3.106410
      7          6           0        7.267870    2.768490   -3.177570
      8          6           0        7.803280    3.600090   -4.081330
      9          6           0        9.265790    3.796750   -4.161790
     10          6           0        9.791390    4.630730   -5.069280
     11          6           0       11.252380    4.834230   -5.157760
     12          6           0       11.770830    5.669850   -6.067870
     13          6           0       13.230640    5.877070   -6.160770
     14          6           0       13.748000    6.709640   -7.067460
     15          1           0        0.139420   -0.377380   -0.267950
     16          1           0        1.828760   -0.817650    0.407320
     17          1           0        1.135220    1.107380   -1.877500
     18          1           0        3.874360    0.193260   -0.552100
     19          1           0        3.157340    2.115490   -2.836050
     20          1           0        5.896860    1.205170   -1.515000
     21          1           0        5.162610    3.123760   -3.796500
     22          1           0        7.912810    2.226590   -2.489510
     23          1           0        7.155190    4.140320   -4.767790
     24          1           0        9.917780    3.258660   -3.477390
     25          1           0        9.136690    5.167390   -5.752290
     26          1           0       11.909980    4.299200   -4.476330
     27          1           0       11.112060    6.204320   -6.748770
     28          1           0       13.897760    5.348180   -5.485440
     29          1           0       13.107930    7.252930   -7.756650
     30          1           0       14.822480    6.850910   -7.122900
 ---------------------------------------------------------------------
                    Distance matrix (angstroms):
                    1          2          3          4          5
     1  C    0.000000
     2  C    1.335027   0.000000
     3  C    2.448676   1.477786   0.000000
     4  C    3.658535   2.448682   1.339572   0.000000
     5  C    4.900680   3.818740   2.452024   1.478159   0.000000
     6  C    6.081842   4.896754   3.661922   2.448087   1.339657
     7  C    7.353516   6.244582   4.904907   3.818986   2.452909
     8  C    8.520107   7.344128   6.085112   4.895509   3.662209
     9  C    9.806420   8.684087   7.357897   6.244297   4.905966
    10  C   10.963716   9.791543   8.523857   7.343011   6.085897
    11  C   12.258605  11.127635   9.810203   8.683023   7.358374
    12  C   13.410285  12.239729  10.968291   9.791311   8.525354
    13  C   14.709137  13.572062  12.260870  11.125360   9.809154
    14  C   15.856377  14.686849  13.413161  12.238527  10.967828
    15  H    1.085258   2.098974   3.438960   4.544416   5.872909
    16  H    1.086005   2.110419   2.675305   4.007158   5.019033
    17  H    2.091941   1.086812   2.228572   2.710523   4.186107
    18  H    2.706915   2.224498   1.087671   2.104683   2.660436
    19  H    3.981670   2.652829   2.103344   1.087747   2.223633
    20  H    5.052116   4.184412   2.709641   2.225542   1.087665
    21  H    6.265819   4.983800   3.984361   2.651025   2.103134
    22  H    7.470870   6.491124   5.057690   4.186405   2.711454
    23  H    8.637505   7.386435   6.267343   4.980652   3.983570
    24  H    9.908911   8.877699   7.476536   6.492284   5.059484
    25  H   11.042155   9.809626   8.640568   7.384604   6.268013
    26  H   12.352220  11.291199   9.912058   8.876129   7.475954
    27  H   13.465262  12.244539  11.049116   9.811755   8.644806
    28  H   14.803886  13.723286  12.359923  11.294370   9.916208
    29  H   15.920752  14.708477  13.496352  12.271563  11.076739
    30  H   16.800262  15.652451  14.352760  13.204189  11.901869
                    6          7          8          9         10
     6  C    0.000000
     7  C    1.478038   0.000000
     8  C    2.447456   1.339778   0.000000
     9  C    3.818542   2.453098   1.477865   0.000000
    10  C    4.895035   3.662603   2.447620   1.339894   0.000000
    11  C    6.243338   4.905584   3.818127   2.452521   1.477746
    12  C    7.343438   6.086737   4.896090   3.662905   2.448496
    13  C    8.681098   7.356451   6.242191   4.903436   3.817480
    14  C    9.790733   8.523848   7.343430   6.084246   4.895851
    15  H    6.991787   8.317282   9.439115  10.764571  11.886735
    16  H    6.299877   7.436111   8.680973   9.873139  11.094209
    17  H    5.047021   6.485281   7.452080   8.863231   9.875765
    18  H    3.992747   5.004080   6.284773   7.421760   8.666447
    19  H    2.700304   4.176063   5.033837   6.472819   7.438035
    20  H    2.104933   2.662288   3.994512   5.007142   6.287665
    21  H    1.087711   2.222928   2.698362   4.174019   5.031554
    22  H    2.225714   1.087672   2.105324   2.663171   3.995518
    23  H    2.649943   2.103191   1.087702   2.222591   2.698323
    24  H    4.186231   2.711491   2.225405   1.087674   2.105389
    25  H    4.980527   3.984519   2.650758   2.103571   1.087722
    26  H    6.490018   5.057572   4.184467   2.709821   2.224843
    27  H    7.388058   6.271857   4.984503   3.987176   2.653496
    28  H    8.879101   7.479071   6.493846   5.061040   4.189296
    29  H    9.839497   8.670898   7.415560   6.295255   5.009723
    30  H   10.757049   9.450075   8.311928   6.998062   5.870130
                   11         12         13         14         15
    11  C    0.000000
    12  C    1.339907   0.000000
    13  C    2.450930   1.477368   0.000000
    14  C    3.659540   2.447355   1.335261   0.000000
    15  H   13.212456  14.335193  15.659614  16.782510   0.000000
    16  H   12.317405  13.522592  14.763534  15.956212   1.871816
    17  H   11.269714  12.308190  13.689249  14.744600   2.405573
    18  H    9.858290  11.080207  12.300522  13.505624   3.788951
    19  H    8.849382   9.862573  11.254982  12.295248   4.681600
    20  H    7.424377   8.669805   9.858710  11.080135   6.099813
    21  H    6.470242   7.437087   8.846672   9.862385   7.066901
    22  H    5.007202   6.288483   7.421824   8.666303   8.493620
    23  H    4.173794   5.033270   6.470532   7.440096   9.480464
    24  H    2.662184   3.994774   5.003163   6.282392  10.915018
    25  H    2.222747   2.700139   4.175036   5.037101  11.906861
    26  H    1.087677   2.105004   2.659164   3.987793  13.346421
    27  H    2.104317   1.087778   2.222885   2.702793  14.342895
    28  H    2.714692   2.228571   1.086667   2.092556  15.789115
    29  H    4.005921   2.673192   2.110659   1.086203  16.807276
    30  H    4.546910   3.438104   2.099527   1.085144  17.743471
                   16         17         18         19         20
    16  H    0.000000
    17  H    3.067106   0.000000
    18  H    2.475259   3.177293   0.000000
    19  H    4.570326   2.454399   3.070100   0.000000
    20  H    4.933209   4.776420   2.457976   3.174717   0.000000
    21  H    6.657430   4.895735   4.557801   2.441348   3.070074
    22  H    7.394233   6.896587   4.919051   4.769374   2.461102
    23  H    8.929395   7.334340   6.641925   4.879996   4.558414
    24  H    9.855938   9.182647   7.380848   6.886342   4.922966
    25  H   11.276850   9.773495   8.914935   7.319233   6.644570
    26  H   12.315161  11.534170   9.840199   9.168850   7.382419
    27  H   13.663724  12.216604  11.265694   9.762453   8.920883
    28  H   14.778459  13.924225  12.303641  11.525024   9.845980
    29  H   16.093612  14.685979  13.674915  12.231919  11.293057
    30  H   16.862615  15.743044  14.400036  13.299503  11.957827
                   21         22         23         24         25
    21  H    0.000000
    22  H    3.174388   0.000000
    23  H    2.438683   3.070327   0.000000
    24  H    4.767774   2.461906   3.174013   0.000000
    25  H    4.877997   4.559816   2.439356   3.070590   0.000000
    26  H    6.882647   4.921436   4.766363   2.459566   3.173794
    27  H    7.321318   6.648220   4.882745   4.561266   2.443416
    28  H    9.170791   7.385090   6.887394   4.923271   4.771968
    29  H    9.790860   8.944056   7.352329   6.666582   4.913012
    30  H   10.875186   9.518202   8.466474   7.088729   6.086133
                   26         27         28         29         30
    26  H    0.000000
    27  H    3.070854   0.000000
    28  H    2.463723   3.176335   0.000000
    29  H    4.573850   2.469596   3.067621   0.000000
    30  H    4.690225   3.784874   2.407193   1.871615   0.000000
 Stoichiometry    C14H16
 Framework group  C1[X(C14H16)]
 Deg. of freedom    84
 Full point group                 C1      NOp   1
 Largest Abelian subgroup         C1      NOp   1
 Largest concise Abelian subgroup C1      NOp   1
                         Standard orientation:                         
 ---------------------------------------------------------------------
 Center     Atomic      Atomic             Coordinates (Angstroms)
 Number     Number       Type             X           Y           Z
 ---------------------------------------------------------------------
      1          6           0       -7.928436    0.217956    0.000038
      2          6           0       -6.767297   -0.440870    0.000017
      3          6           0       -5.480709    0.286140    0.000013
      4          6           0       -4.319336   -0.381442   -0.000009
      5          6           0       -3.029280    0.340160   -0.000012
      6          6           0       -1.871706   -0.334157   -0.000025
      7          6           0       -0.576666    0.378212   -0.000030
      8          6           0        0.575582   -0.305402   -0.000028
      9          6           0        1.876367    0.396054   -0.000023
     10          6           0        3.023187   -0.296853   -0.000013
     11          6           0        4.328888    0.395157   -0.000012
     12          6           0        5.471672   -0.304413    0.000011
     13          6           0        6.779784    0.382216    0.000026
     14          6           0        7.919007   -0.314270    0.000036
     15          1           0       -8.863493   -0.332908    0.000052
     16          1           0       -7.954969    1.303637    0.000059
     17          1           0       -6.775582   -1.527650    0.000011
     18          1           0       -5.480705    1.373812    0.000018
     19          1           0       -4.321879   -1.469186   -0.000024
     20          1           0       -3.023322    1.427808   -0.000007
     21          1           0       -1.880991   -1.421829   -0.000036
     22          1           0       -0.562514    1.465792   -0.000026
     23          1           0        0.557521   -1.392955   -0.000027
     24          1           0        1.899329    1.483486   -0.000034
     25          1           0        2.996861   -1.384256   -0.000013
     26          1           0        4.358895    1.482420   -0.000017
     27          1           0        5.440266   -1.391737    0.000015
     28          1           0        6.822576    1.468039    0.000009
     29          1           0        7.909846   -1.400434    0.000043
     30          1           0        8.871822    0.205039    0.000056
 ---------------------------------------------------------------------
 Rotational constants (GHZ):     10.3074488      0.1100754      0.1089123
 Standard basis: STO-3G (5D, 7F)
 There are    86 symmetry adapted cartesian basis functions of A   symmetry.
 There are    86 symmetry adapted basis functions of A   symmetry.
    86 basis functions,   258 primitive gaussians,    86 cartesian basis functions
    50 alpha electrons       50 beta electrons
       nuclear repulsion energy       664.3680042324 Hartrees.
 NAtoms=   30 NActive=   30 NUniq=   30 SFac= 1.00D+00 NAtFMM=   60 NAOKFM=F Big=F
 Integral buffers will be    131072 words long.
 Raffenetti 2 integral format.
 Two-electron integral symmetry is turned on.
 One-electron integrals computed using PRISM.
 NBasis=    86 RedAO= T EigKep=  1.83D-01  NBF=    86
 NBsUse=    86 1.00D-06 EigRej= -1.00D+00 NBFU=    86
 ExpMin= 1.69D-01 ExpMax= 7.16D+01 ExpMxC= 7.16D+01 IAcc=1 IRadAn=         1 AccDes= 0.00D+00
 Harris functional with IExCor=  402 and IRadAn=       1 diagonalized for initial guess.
 HarFok:  IExCor=  402 AccDes= 0.00D+00 IRadAn=         1 IDoV= 1 UseB2=F ITyADJ=14
 ICtDFT=  3500011 ScaDFX=  1.000000  1.000000  1.000000  1.000000
 FoFCou: FMM=F IPFlag=           0 FMFlag=      100000 FMFlg1=           0
         NFxFlg=           0 DoJE=T BraDBF=F KetDBF=T FulRan=T
         wScrn=  0.000000 ICntrl=     500 IOpCl=  0 I1Cent=   200000004 NGrid=           0
         NMat0=    1 NMatS0=      1 NMatT0=    0 NMatD0=    1 NMtDS0=    0 NMtDT0=    0
 Petite list used in FoFCou.
 Keep R1 ints in memory in canonical form, NReq=7949877.
 Requested convergence on RMS density matrix=1.00D-08 within 128 cycles.
 Requested convergence on MAX density matrix=1.00D-06.
 Requested convergence on             energy=1.00D-06.
 No special actions if energy rises.
 Integral accuracy reduced to 1.0D-05 until final iterations.
 Initial convergence to 1.0D-05 achieved.  Increase integral accuracy.
 SCF Done:  E(RB3LYP) =  -536.344380620     A.U. after   13 cycles
            NFock= 13  Conv=0.59D-08     -V/T= 2.0158

 **********************************************************************

            Population analysis using the SCF density.

 **********************************************************************

 Orbital symmetries:
       Occupied  (A) (A) (A) (A) (A) (A) (A) (A) (A) (A) (A) (A)
                 (A) (A) (A) (A) (A) (A) (A) (A) (A) (A) (A) (A)
                 (A) (A) (A) (A) (A) (A) (A) (A) (A) (A) (A) (A)
                 (A) (A) (A) (A) (A) (A) (A) (A) (A) (A) (A) (A)
                 (A) (A)
       Virtual   (A) (A) (A) (A) (A) (A) (A) (A) (A) (A) (A) (A)
                 (A) (A) (A) (A) (A) (A) (A) (A) (A) (A) (A) (A)
                 (A) (A) (A) (A) (A) (A) (A) (A) (A) (A) (A) (A)
 The electronic state is 1-A.
 Alpha  occ. eigenvalues --  -10.00532 -10.00502 -10.00391 -10.00374 -10.00366
 Alpha  occ. eigenvalues --  -10.00354 -10.00305 -10.00289 -10.00278 -10.00268
 Alpha  occ. eigenvalues --  -10.00257 -10.00243  -9.98769  -9.98731  -0.78588
 Alpha  occ. eigenvalues --   -0.77665  -0.76159  -0.74109  -0.71582  -0.68714
 Alpha  occ. eigenvalues --   -0.65926  -0.58447  -0.55316  -0.53426  -0.52631
 Alpha  occ. eigenvalues --   -0.52090  -0.51281  -0.50570  -0.44527  -0.43546
 Alpha  occ. eigenvalues --   -0.42915  -0.41240  -0.39697  -0.37701  -0.35994
 Alpha  occ. eigenvalues --   -0.35727  -0.34025  -0.33735  -0.33077  -0.32853
 Alpha  occ. eigenvalues --   -0.31874  -0.30271  -0.30218  -0.28994  -0.28285
 Alpha  occ. eigenvalues --   -0.26889  -0.23996  -0.20397  -0.16310  -0.12418
 Alpha virt. eigenvalues --    0.01414   0.05745   0.10608   0.15144   0.18946
 Alpha virt. eigenvalues --    0.21772   0.23498   0.32566   0.34946   0.37877
 Alpha virt. eigenvalues --    0.40440   0.41035   0.41452   0.41569   0.41755
 Alpha virt. eigenvalues --    0.41847   0.42087   0.42792   0.43503   0.43934
 Alpha virt. eigenvalues --    0.44853   0.45680   0.55474   0.55640   0.57910
 Alpha virt. eigenvalues --    0.60348   0.62895   0.64045   0.66872   0.68135
 Alpha virt. eigenvalues --    0.70391   0.71283   0.73368   0.76463   0.79020
 Alpha virt. eigenvalues --    0.80665
          Condensed to atoms (all electrons):
               1          2          3          4          5          6
     1  C    4.856763   0.583413  -0.031630   0.000871  -0.000009   0.000000
     2  C    0.583413   4.793128   0.423574  -0.031248   0.001023  -0.000009
     3  C   -0.031630   0.423574   4.816486   0.568138  -0.031029   0.000878
     4  C    0.000871  -0.031248   0.568138   4.812722   0.427939  -0.031335
     5  C   -0.000009   0.001023  -0.031029   0.427939   4.815220   0.565690
     6  C    0.000000  -0.000009   0.000878  -0.031335   0.565690   4.814307
     7  C    0.000000   0.000000  -0.000009   0.001016  -0.030957   0.428951
     8  C    0.000000   0.000000   0.000000  -0.000009   0.000881  -0.031399
     9  C    0.000000   0.000000   0.000000   0.000000  -0.000009   0.001016
    10  C    0.000000   0.000000   0.000000   0.000000   0.000000  -0.000009
    11  C    0.000000   0.000000   0.000000   0.000000   0.000000   0.000000
    12  C    0.000000   0.000000   0.000000   0.000000   0.000000   0.000000
    13  C    0.000000   0.000000   0.000000   0.000000   0.000000   0.000000
    14  C    0.000000   0.000000   0.000000   0.000000   0.000000   0.000000
    15  H    0.390696  -0.026116   0.001663  -0.000027   0.000000   0.000000
    16  H    0.390318  -0.025522  -0.005354   0.000046  -0.000001   0.000000
    17  H   -0.028243   0.390273  -0.022689  -0.003361   0.000008   0.000000
    18  H   -0.003304  -0.022685   0.389856  -0.027445  -0.005184   0.000046
    19  H    0.000048  -0.005291  -0.027581   0.389821  -0.022759  -0.003450
    20  H    0.000000   0.000008  -0.003341  -0.022616   0.389785  -0.027458
    21  H    0.000000  -0.000001   0.000048  -0.005329  -0.027618   0.389871
    22  H    0.000000   0.000000   0.000000   0.000008  -0.003322  -0.022603
    23  H    0.000000   0.000000   0.000000  -0.000001   0.000048  -0.005344
    24  H    0.000000   0.000000   0.000000   0.000000   0.000000   0.000008
    25  H    0.000000   0.000000   0.000000   0.000000   0.000000  -0.000001
    26  H    0.000000   0.000000   0.000000   0.000000   0.000000   0.000000
    27  H    0.000000   0.000000   0.000000   0.000000   0.000000   0.000000
    28  H    0.000000   0.000000   0.000000   0.000000   0.000000   0.000000
    29  H    0.000000   0.000000   0.000000   0.000000   0.000000   0.000000
    30  H    0.000000   0.000000   0.000000   0.000000   0.000000   0.000000
               7          8          9         10         11         12
     1  C    0.000000   0.000000   0.000000   0.000000   0.000000   0.000000
     2  C    0.000000   0.000000   0.000000   0.000000   0.000000   0.000000
     3  C   -0.000009   0.000000   0.000000   0.000000   0.000000   0.000000
     4  C    0.001016  -0.000009   0.000000   0.000000   0.000000   0.000000
     5  C   -0.030957   0.000881  -0.000009   0.000000   0.000000   0.000000
     6  C    0.428951  -0.031399   0.001016  -0.000009   0.000000   0.000000
     7  C    4.814775   0.565153  -0.030936   0.000881  -0.000009   0.000000
     8  C    0.565153   4.814767   0.429012  -0.031388   0.001018  -0.000009
     9  C   -0.030936   0.429012   4.814232   0.565585  -0.030971   0.000876
    10  C    0.000881  -0.031388   0.565585   4.815137   0.428079  -0.031311
    11  C   -0.000009   0.001018  -0.030971   0.428079   4.812601   0.567992
    12  C    0.000000  -0.000009   0.000876  -0.031311   0.567992   4.816358
    13  C    0.000000   0.000000  -0.000009   0.001026  -0.031066   0.423702
    14  C    0.000000   0.000000   0.000000  -0.000009   0.000870  -0.031728
    15  H    0.000000   0.000000   0.000000   0.000000   0.000000   0.000000
    16  H    0.000000   0.000000   0.000000   0.000000   0.000000   0.000000
    17  H    0.000000   0.000000   0.000000   0.000000   0.000000   0.000000
    18  H   -0.000001   0.000000   0.000000   0.000000   0.000000   0.000000
    19  H    0.000009   0.000000   0.000000   0.000000   0.000000   0.000000
    20  H   -0.005158   0.000045  -0.000001   0.000000   0.000000   0.000000
    21  H   -0.022791  -0.003473   0.000009   0.000000   0.000000   0.000000
    22  H    0.389757  -0.027436  -0.005144   0.000045  -0.000001   0.000000
    23  H   -0.027614   0.389891  -0.022806  -0.003474   0.000009   0.000000
    24  H   -0.003321  -0.022624   0.389751  -0.027434  -0.005157   0.000045
    25  H    0.000048  -0.005330  -0.027577   0.389886  -0.022795  -0.003451
    26  H    0.000000   0.000008  -0.003341  -0.022670   0.389754  -0.027444
    27  H    0.000000  -0.000001   0.000048  -0.005285  -0.027487   0.389893
    28  H    0.000000   0.000000   0.000000   0.000008  -0.003314  -0.022676
    29  H    0.000000   0.000000   0.000000  -0.000001   0.000047  -0.005382
    30  H    0.000000   0.000000   0.000000   0.000000  -0.000027   0.001665
              13         14         15         16         17         18
     1  C    0.000000   0.000000   0.390696   0.390318  -0.028243  -0.003304
     2  C    0.000000   0.000000  -0.026116  -0.025522   0.390273  -0.022685
     3  C    0.000000   0.000000   0.001663  -0.005354  -0.022689   0.389856
     4  C    0.000000   0.000000  -0.000027   0.000046  -0.003361  -0.027445
     5  C    0.000000   0.000000   0.000000  -0.000001   0.000008  -0.005184
     6  C    0.000000   0.000000   0.000000   0.000000   0.000000   0.000046
     7  C    0.000000   0.000000   0.000000   0.000000   0.000000  -0.000001
     8  C    0.000000   0.000000   0.000000   0.000000   0.000000   0.000000
     9  C   -0.000009   0.000000   0.000000   0.000000   0.000000   0.000000
    10  C    0.001026  -0.000009   0.000000   0.000000   0.000000   0.000000
    11  C   -0.031066   0.000870   0.000000   0.000000   0.000000   0.000000
    12  C    0.423702  -0.031728   0.000000   0.000000   0.000000   0.000000
    13  C    4.793014   0.583317   0.000000   0.000000   0.000000   0.000000
    14  C    0.583317   4.856684   0.000000   0.000000   0.000000   0.000000
    15  H    0.000000   0.000000   0.583613  -0.022566  -0.005245   0.000010
    16  H    0.000000   0.000000  -0.022566   0.582047   0.002150   0.000868
    17  H    0.000000   0.000000  -0.005245   0.002150   0.584358   0.001376
    18  H    0.000000   0.000000   0.000010   0.000868   0.001376   0.583225
    19  H    0.000000   0.000000  -0.000002   0.000002   0.000852   0.002086
    20  H    0.000000   0.000000   0.000000   0.000000  -0.000001   0.000844
    21  H    0.000000   0.000000   0.000000   0.000000   0.000000   0.000001
    22  H    0.000000   0.000000   0.000000   0.000000   0.000000   0.000000
    23  H    0.000000   0.000000   0.000000   0.000000   0.000000   0.000000
    24  H   -0.000001   0.000000   0.000000   0.000000   0.000000   0.000000
    25  H    0.000009   0.000000   0.000000   0.000000   0.000000   0.000000
    26  H   -0.005191   0.000046   0.000000   0.000000   0.000000   0.000000
    27  H   -0.022789  -0.003352   0.000000   0.000000   0.000000   0.000000
    28  H    0.390274  -0.028185   0.000000   0.000000   0.000000   0.000000
    29  H   -0.025515   0.390286   0.000000   0.000000   0.000000   0.000000
    30  H   -0.026085   0.390696   0.000000   0.000000   0.000000   0.000000
              19         20         21         22         23         24
     1  C    0.000048   0.000000   0.000000   0.000000   0.000000   0.000000
     2  C   -0.005291   0.000008  -0.000001   0.000000   0.000000   0.000000
     3  C   -0.027581  -0.003341   0.000048   0.000000   0.000000   0.000000
     4  C    0.389821  -0.022616  -0.005329   0.000008  -0.000001   0.000000
     5  C   -0.022759   0.389785  -0.027618  -0.003322   0.000048   0.000000
     6  C   -0.003450  -0.027458   0.389871  -0.022603  -0.005344   0.000008
     7  C    0.000009  -0.005158  -0.022791   0.389757  -0.027614  -0.003321
     8  C    0.000000   0.000045  -0.003473  -0.027436   0.389891  -0.022624
     9  C    0.000000  -0.000001   0.000009  -0.005144  -0.022806   0.389751
    10  C    0.000000   0.000000   0.000000   0.000045  -0.003474  -0.027434
    11  C    0.000000   0.000000   0.000000  -0.000001   0.000009  -0.005157
    12  C    0.000000   0.000000   0.000000   0.000000   0.000000   0.000045
    13  C    0.000000   0.000000   0.000000   0.000000   0.000000  -0.000001
    14  C    0.000000   0.000000   0.000000   0.000000   0.000000   0.000000
    15  H   -0.000002   0.000000   0.000000   0.000000   0.000000   0.000000
    16  H    0.000002   0.000000   0.000000   0.000000   0.000000   0.000000
    17  H    0.000852  -0.000001   0.000000   0.000000   0.000000   0.000000
    18  H    0.002086   0.000844   0.000001   0.000000   0.000000   0.000000
    19  H    0.584354   0.001374   0.000858  -0.000001   0.000000   0.000000
    20  H    0.001374   0.583768   0.002088   0.000843   0.000001   0.000000
    21  H    0.000858   0.002088   0.584599   0.001375   0.000859  -0.000001
    22  H   -0.000001   0.000843   0.001375   0.583768   0.002086   0.000843
    23  H    0.000000   0.000001   0.000859   0.002086   0.584583   0.001377
    24  H    0.000000   0.000000  -0.000001   0.000843   0.001377   0.583796
    25  H    0.000000   0.000000   0.000000   0.000001   0.000859   0.002084
    26  H    0.000000   0.000000   0.000000   0.000000  -0.000001   0.000845
    27  H    0.000000   0.000000   0.000000   0.000000   0.000000   0.000001
    28  H    0.000000   0.000000   0.000000   0.000000   0.000000   0.000000
    29  H    0.000000   0.000000   0.000000   0.000000   0.000000   0.000000
    30  H    0.000000   0.000000   0.000000   0.000000   0.000000   0.000000
              25         26         27         28         29         30
     1  C    0.000000   0.000000   0.000000   0.000000   0.000000   0.000000
     2  C    0.000000   0.000000   0.000000   0.000000   0.000000   0.000000
     3  C    0.000000   0.000000   0.000000   0.000000   0.000000   0.000000
     4  C    0.000000   0.000000   0.000000   0.000000   0.000000   0.000000
     5  C    0.000000   0.000000   0.000000   0.000000   0.000000   0.000000
     6  C   -0.000001   0.000000   0.000000   0.000000   0.000000   0.000000
     7  C    0.000048   0.000000   0.000000   0.000000   0.000000   0.000000
     8  C   -0.005330   0.000008  -0.000001   0.000000   0.000000   0.000000
     9  C   -0.027577  -0.003341   0.000048   0.000000   0.000000   0.000000
    10  C    0.389886  -0.022670  -0.005285   0.000008  -0.000001   0.000000
    11  C   -0.022795   0.389754  -0.027487  -0.003314   0.000047  -0.000027
    12  C   -0.003451  -0.027444   0.389893  -0.022676  -0.005382   0.001665
    13  C    0.000009  -0.005191  -0.022789   0.390274  -0.025515  -0.026085
    14  C    0.000000   0.000046  -0.003352  -0.028185   0.390286   0.390696
    15  H    0.000000   0.000000   0.000000   0.000000   0.000000   0.000000
    16  H    0.000000   0.000000   0.000000   0.000000   0.000000   0.000000
    17  H    0.000000   0.000000   0.000000   0.000000   0.000000   0.000000
    18  H    0.000000   0.000000   0.000000   0.000000   0.000000   0.000000
    19  H    0.000000   0.000000   0.000000   0.000000   0.000000   0.000000
    20  H    0.000000   0.000000   0.000000   0.000000   0.000000   0.000000
    21  H    0.000000   0.000000   0.000000   0.000000   0.000000   0.000000
    22  H    0.000001   0.000000   0.000000   0.000000   0.000000   0.000000
    23  H    0.000859  -0.000001   0.000000   0.000000   0.000000   0.000000
    24  H    0.002084   0.000845   0.000001   0.000000   0.000000   0.000000
    25  H    0.584377   0.001379   0.000856  -0.000001   0.000000   0.000000
    26  H    0.001379   0.583767   0.002081   0.000845   0.000001  -0.000002
    27  H    0.000856   0.002081   0.583500   0.001380   0.000874   0.000011
    28  H   -0.000001   0.000845   0.001380   0.584050   0.002147  -0.005219
    29  H    0.000000   0.000001   0.000874   0.002147   0.582067  -0.022581
    30  H    0.000000  -0.000002   0.000011  -0.005219  -0.022581   0.583455
 Mulliken charges:
               1
     1  C   -0.158922
     2  C   -0.080546
     3  C   -0.079010
     4  C   -0.079189
     5  C   -0.079706
     6  C   -0.079156
     7  C   -0.079793
     8  C   -0.079105
     9  C   -0.079734
    10  C   -0.079063
    11  C   -0.079543
    12  C   -0.078530
    13  C   -0.080685
    14  C   -0.158624
    15  H    0.077973
    16  H    0.078011
    17  H    0.080522
    18  H    0.080308
    19  H    0.079681
    20  H    0.079819
    21  H    0.079504
    22  H    0.079782
    23  H    0.079528
    24  H    0.079789
    25  H    0.079658
    26  H    0.079924
    27  H    0.080271
    28  H    0.080692
    29  H    0.078058
    30  H    0.078086
 Sum of Mulliken charges =   0.00000
 Mulliken charges with hydrogens summed into heavy atoms:
               1
     1  C   -0.002938
     2  C   -0.000024
     3  C    0.001298
     4  C    0.000492
     5  C    0.000113
     6  C    0.000348
     7  C   -0.000011
     8  C    0.000422
     9  C    0.000055
    10  C    0.000595
    11  C    0.000381
    12  C    0.001741
    13  C    0.000006
    14  C   -0.002480
 Electronic spatial extent (au):  <R**2>=           9390.8518
 Charge=              0.0000 electrons
 Dipole moment (field-independent basis, Debye):
    X=              0.0366    Y=             -0.0017    Z=              0.0000  Tot=              0.0367
 Quadrupole moment (field-independent basis, Debye-Ang):
   XX=            -75.2834   YY=            -71.0248   ZZ=            -83.7024
   XY=              0.5867   XZ=              0.0000   YZ=              0.0000
 Traceless Quadrupole moment (field-independent basis, Debye-Ang):
   XX=              1.3868   YY=              5.6454   ZZ=             -7.0322
   XY=              0.5867   XZ=              0.0000   YZ=              0.0000
 Octapole moment (field-independent basis, Debye-Ang**2):
  XXX=              1.9905  YYY=              0.0699  ZZZ=              0.0000  XYY=             -0.0954
  XXY=              0.3076  XXZ=              0.0017  XZZ=              0.0166  YZZ=              0.0028
  YYZ=              0.0000  XYZ=             -0.0004
 Hexadecapole moment (field-independent basis, Debye-Ang**3):
 XXXX=         -11455.2236 YYYY=           -210.1446 ZZZZ=            -67.8532 XXXY=             71.7264
 XXXZ=             -0.0024 YYYX=             -2.3701 YYYZ=              0.0000 ZZZX=              0.0000
 ZZZY=              0.0000 XXYY=          -1869.4934 XXZZ=          -2153.7969 YYZZ=            -53.5578
 XXYZ=              0.0005 YYXZ=             -0.0002 ZZXY=             -0.1589
 N-N= 6.643680042324D+02 E-N=-2.570005121696D+03  KE= 5.279893853363D+02
 Calling FoFJK, ICntrl=      2127 FMM=F ISym2X=0 I1Cent= 0 IOpClX= 0 NMat=1 NMatS=1 NMatT=0.
 ***** Axes restored to original set *****
 -------------------------------------------------------------------
 Center     Atomic                   Forces (Hartrees/Bohr)
 Number     Number              X              Y              Z
 -------------------------------------------------------------------
      1        6          -0.008026517   -0.001535897    0.000965475
      2        6           0.013482284   -0.007843587    0.010372071
      3        6          -0.024631722   -0.000147084   -0.002286528
      4        6           0.029658519    0.000992674    0.001815804
      5        6          -0.030656883   -0.002677063    0.000023890
      6        6           0.031795435    0.002854641   -0.000112637
      7        6          -0.031847646   -0.003229845    0.000539606
      8        6           0.031944355    0.003309965   -0.000622990
      9        6          -0.031547307   -0.003023582    0.000333925
     10        6           0.030585183    0.002979964   -0.000377253
     11        6          -0.029436544   -0.001364271   -0.001367539
     12        6           0.024537031    0.000505997    0.001865881
     13        6          -0.013726570    0.007639317   -0.010159412
     14        6           0.007801788    0.001640818   -0.001112556
     15        1          -0.008336414   -0.004813187    0.004708625
     16        1           0.001275322   -0.005586464    0.006557788
     17        1          -0.000605437    0.007595791   -0.008802334
     18        1           0.001368636   -0.006058536    0.007109036
     19        1          -0.001549645    0.006037142   -0.007103507
     20        1           0.001559160   -0.006017146    0.007080673
     21        1          -0.001619270    0.006015590   -0.007085739
     22        1           0.001659686   -0.005994884    0.007065865
     23        1          -0.001714493    0.005987258   -0.007062379
     24        1           0.001769780   -0.005978423    0.007057287
     25        1          -0.001781510    0.005949992   -0.007026781
     26        1           0.001872480   -0.005984372    0.007075003
     27        1          -0.001661670    0.005947490   -0.007011949
     28        1           0.001100177   -0.007593632    0.008848845
     29        1          -0.001494417    0.005444110   -0.006415459
     30        1           0.008226210    0.004947224   -0.004872710
 -------------------------------------------------------------------
 Cartesian Forces:  Max     0.031944355 RMS     0.011213231

 GradGradGradGradGradGradGradGradGradGradGradGradGradGradGradGradGradGrad
 Berny optimization.
 FormGI is forming the generalized inverse of G from B-inverse, IUseBI=4.
 GSVD:  received Info=                   1 from GESDD.
 Internal  Forces:  Max     0.037306745 RMS     0.010085434
 Search for a local minimum.
 Step number   1 out of a maximum of  133
 All quantities printed in internal units (Hartrees-Bohrs-Radians)
 Mixed Optimization -- RFO/linear search
 Second derivative matrix not updated -- first step.
 ITU=  0
     Eigenvalues ---    0.01055   0.01056   0.01059   0.01060   0.01060
     Eigenvalues ---    0.01065   0.01974   0.01974   0.01975   0.01975
     Eigenvalues ---    0.01976   0.01976   0.01976   0.01976   0.01978
     Eigenvalues ---    0.01979   0.01997   0.01998   0.02884   0.02884
     Eigenvalues ---    0.02885   0.02887   0.02888   0.02945   0.02945
     Eigenvalues ---    0.02948   0.02948   0.16000   0.16000   0.16000
     Eigenvalues ---    0.16000   0.16000   0.16000   0.16000   0.16000
     Eigenvalues ---    0.16000   0.16000   0.16000   0.16000   0.16000
     Eigenvalues ---    0.16000   0.16000   0.16000   0.22000   0.22000
     Eigenvalues ---    0.22000   0.22000   0.22000   0.22000   0.22000
     Eigenvalues ---    0.22000   0.22000   0.22000   0.22000   0.22000
     Eigenvalues ---    0.34781   0.34795   0.34815   0.34824   0.34829
     Eigenvalues ---    0.34873   0.35071   0.35074   0.35077   0.35078
     Eigenvalues ---    0.35080   0.35082   0.35083   0.35083   0.35083
     Eigenvalues ---    0.35084   0.35184   0.35201   0.35255   0.35278
     Eigenvalues ---    0.35366   0.35380   0.57226   0.57229   0.57255
     Eigenvalues ---    0.57282   0.57301   0.58280   0.58334
 RFO step:  Lambda=-3.17739385D-02 EMin= 1.05486175D-02
 Linear search not attempted -- first point.
 Maximum step size (   0.300) exceeded in Quadratic search.
    -- Step size scaled by   0.958
 Iteration  1 RMS(Cart)=  0.12744990 RMS(Int)=  0.00059467
 Iteration  2 RMS(Cart)=  0.00104904 RMS(Int)=  0.00000015
 Iteration  3 RMS(Cart)=  0.00000080 RMS(Int)=  0.00000004
 Variable       Old X    -DE/DX   Delta X   Delta X   Delta X     New X
                                 (Linear)    (Quad)   (Total)
    R1        2.52283   0.02182   0.00000   0.03398   0.03398   2.55682
    R2        2.05084   0.00893   0.00000   0.02219   0.02219   2.07303
    R3        2.05225   0.00783   0.00000   0.01952   0.01952   2.07177
    R4        2.79261   0.00421   0.00000   0.01060   0.01060   2.80321
    R5        2.05378   0.00975   0.00000   0.02434   0.02434   2.07812
    R6        2.53142   0.03433   0.00000   0.05438   0.05438   2.58580
    R7        2.05540   0.00838   0.00000   0.02099   0.02099   2.07639
    R8        2.79332  -0.00064   0.00000  -0.00162  -0.00162   2.79170
    R9        2.05554   0.00847   0.00000   0.02120   0.02120   2.07675
   R10        2.53158   0.03691   0.00000   0.05848   0.05848   2.59007
   R11        2.05539   0.00843   0.00000   0.02111   0.02111   2.07650
   R12        2.79309  -0.00161   0.00000  -0.00406  -0.00406   2.78903
   R13        2.05548   0.00846   0.00000   0.02118   0.02118   2.07666
   R14        2.53181   0.03731   0.00000   0.05914   0.05914   2.59095
   R15        2.05540   0.00844   0.00000   0.02113   0.02113   2.07654
   R16        2.79276  -0.00152   0.00000  -0.00383  -0.00383   2.78893
   R17        2.05546   0.00845   0.00000   0.02117   0.02117   2.07662
   R18        2.53203   0.03664   0.00000   0.05811   0.05811   2.59015
   R19        2.05541   0.00846   0.00000   0.02118   0.02118   2.07659
   R20        2.79253  -0.00042   0.00000  -0.00106  -0.00106   2.79148
   R21        2.05550   0.00842   0.00000   0.02109   0.02109   2.07658
   R22        2.53206   0.03395   0.00000   0.05385   0.05385   2.58590
   R23        2.05541   0.00851   0.00000   0.02130   0.02130   2.07672
   R24        2.79182   0.00444   0.00000   0.01119   0.01119   2.80301
   R25        2.05560   0.00832   0.00000   0.02083   0.02083   2.07643
   R26        2.52328   0.02155   0.00000   0.03360   0.03360   2.55687
   R27        2.05350   0.00987   0.00000   0.02464   0.02464   2.07814
   R28        2.05263   0.00767   0.00000   0.01913   0.01913   2.07175
   R29        2.05063   0.00904   0.00000   0.02246   0.02246   2.07308
    A1        2.09311   0.00550   0.00000   0.02748   0.02748   2.12058
    A2        2.11133   0.00115   0.00000   0.00574   0.00574   2.11707
    A3        2.07875  -0.00665   0.00000  -0.03322  -0.03322   2.04553
    A4        2.11115   0.01256   0.00000   0.04781   0.04781   2.15896
    A5        2.07927   0.00026   0.00000   0.00877   0.00877   2.08804
    A6        2.09276  -0.01282   0.00000  -0.05657  -0.05657   2.03619
    A7        2.10555   0.01372   0.00000   0.05220   0.05220   2.15775
    A8        2.08514  -0.01132   0.00000  -0.04837  -0.04837   2.03677
    A9        2.09249  -0.00240   0.00000  -0.00383  -0.00383   2.08867
   A10        2.10989   0.01317   0.00000   0.05010   0.05010   2.15999
   A11        2.09016  -0.00227   0.00000  -0.00348  -0.00348   2.08667
   A12        2.08313  -0.01090   0.00000  -0.04661  -0.04661   2.03652
   A13        2.10412   0.01404   0.00000   0.05340   0.05340   2.15752
   A14        2.08627  -0.01134   0.00000  -0.04827  -0.04827   2.03800
   A15        2.09279  -0.00270   0.00000  -0.00513  -0.00513   2.08766
   A16        2.11122   0.01291   0.00000   0.04913   0.04913   2.16035
   A17        2.08973  -0.00216   0.00000  -0.00310  -0.00310   2.08663
   A18        2.08223  -0.01075   0.00000  -0.04602  -0.04602   2.03621
   A19        2.10322   0.01423   0.00000   0.05413   0.05413   2.15735
   A20        2.08671  -0.01140   0.00000  -0.04847  -0.04847   2.03824
   A21        2.09325  -0.00283   0.00000  -0.00567  -0.00567   2.08759
   A22        2.11157   0.01283   0.00000   0.04882   0.04882   2.16038
   A23        2.08966  -0.00215   0.00000  -0.00310  -0.00310   2.08656
   A24        2.08196  -0.01068   0.00000  -0.04571  -0.04571   2.03624
   A25        2.10353   0.01418   0.00000   0.05396   0.05396   2.15749
   A26        2.08647  -0.01134   0.00000  -0.04822  -0.04822   2.03824
   A27        2.09319  -0.00284   0.00000  -0.00574  -0.00574   2.08745
   A28        2.11074   0.01292   0.00000   0.04916   0.04916   2.15990
   A29        2.09009  -0.00222   0.00000  -0.00338  -0.00338   2.08671
   A30        2.08235  -0.01070   0.00000  -0.04578  -0.04578   2.03657
   A31        2.10493   0.01396   0.00000   0.05311   0.05311   2.15804
   A32        2.08574  -0.01121   0.00000  -0.04771  -0.04771   2.03803
   A33        2.09252  -0.00274   0.00000  -0.00540  -0.00540   2.08712
   A34        2.10891   0.01316   0.00000   0.05007   0.05007   2.15898
   A35        2.09124  -0.00221   0.00000  -0.00318  -0.00318   2.08805
   A36        2.08304  -0.01095   0.00000  -0.04689  -0.04689   2.03615
   A37        2.10949   0.01278   0.00000   0.04863   0.04863   2.15812
   A38        2.09355  -0.01286   0.00000  -0.05665  -0.05665   2.03690
   A39        2.08014   0.00008   0.00000   0.00802   0.00802   2.08817
   A40        2.11110   0.00115   0.00000   0.00574   0.00574   2.11684
   A41        2.09384   0.00542   0.00000   0.02708   0.02708   2.12092
   A42        2.07825  -0.00657   0.00000  -0.03282  -0.03282   2.04543
    D1       -3.14158   0.00000   0.00000  -0.00001  -0.00001  -3.14159
    D2        0.00000   0.00000   0.00000   0.00000   0.00000   0.00000
    D3       -0.00001   0.00000   0.00000   0.00001   0.00001   0.00000
    D4        3.14158   0.00000   0.00000   0.00001   0.00001   3.14159
    D5       -3.14159   0.00000   0.00000   0.00000   0.00000  -3.14159
    D6       -0.00001   0.00000   0.00000   0.00001   0.00001   0.00000
    D7        0.00001   0.00000   0.00000  -0.00001  -0.00001   0.00000
    D8        3.14159   0.00000   0.00000   0.00000   0.00000   3.14159
    D9       -3.14159   0.00000   0.00000   0.00000   0.00000  -3.14159
   D10        0.00000   0.00000   0.00000   0.00000   0.00000   0.00000
   D11        0.00001   0.00000   0.00000  -0.00001  -0.00001   0.00001
   D12       -3.14158   0.00000   0.00000  -0.00001  -0.00001  -3.14159
   D13        3.14159   0.00000   0.00000   0.00000   0.00000   3.14158
   D14       -0.00001   0.00000   0.00000   0.00000   0.00000  -0.00001
   D15       -0.00001   0.00000   0.00000   0.00000   0.00000  -0.00001
   D16        3.14158   0.00000   0.00000   0.00000   0.00000   3.14159
   D17        3.14159   0.00000   0.00000   0.00000   0.00000  -3.14159
   D18        0.00000   0.00000   0.00000   0.00000   0.00000   0.00000
   D19        0.00000   0.00000   0.00000   0.00000   0.00000   0.00000
   D20       -3.14159   0.00000   0.00000   0.00000   0.00000  -3.14159
   D21        3.14158   0.00000   0.00000   0.00000   0.00000   3.14158
   D22        0.00000   0.00000   0.00000   0.00000   0.00000  -0.00001
   D23       -0.00002   0.00000   0.00000   0.00001   0.00001  -0.00001
   D24        3.14159   0.00000   0.00000   0.00000   0.00000   3.14159
   D25       -3.14159   0.00000   0.00000   0.00000   0.00000  -3.14159
   D26        0.00000   0.00000   0.00000   0.00000   0.00000   0.00000
   D27        0.00000   0.00000   0.00000   0.00000   0.00000   0.00000
   D28        3.14159   0.00000   0.00000   0.00000   0.00000   3.14159
   D29        3.14159   0.00000   0.00000   0.00000   0.00000   3.14159
   D30       -0.00001   0.00000   0.00000   0.00000   0.00000  -0.00001
   D31        0.00000   0.00000   0.00000   0.00000   0.00000  -0.00001
   D32        3.14158   0.00000   0.00000   0.00000   0.00000   3.14159
   D33        3.14159   0.00000   0.00000   0.00000   0.00000  -3.14159
   D34        0.00000   0.00000   0.00000   0.00000   0.00000   0.00000
   D35        0.00000   0.00000   0.00000   0.00000   0.00000   0.00000
   D36       -3.14158   0.00000   0.00000  -0.00001  -0.00001  -3.14159
   D37        3.14158   0.00000   0.00000   0.00000   0.00000   3.14158
   D38        0.00000   0.00000   0.00000   0.00000   0.00000   0.00000
   D39       -0.00002   0.00000   0.00000   0.00001   0.00001  -0.00001
   D40        3.14159   0.00000   0.00000   0.00000   0.00000   3.14159
   D41       -3.14158   0.00000   0.00000  -0.00001  -0.00001  -3.14159
   D42        0.00001   0.00000   0.00000  -0.00001  -0.00001   0.00001
   D43        0.00000   0.00000   0.00000   0.00000   0.00000   0.00000
   D44       -3.14159   0.00000   0.00000   0.00000   0.00000  -3.14159
   D45       -3.14158   0.00000   0.00000  -0.00001  -0.00001  -3.14159
   D46       -0.00001   0.00000   0.00000   0.00000   0.00000  -0.00001
   D47        0.00001   0.00000   0.00000   0.00000   0.00000   0.00000
   D48        3.14158   0.00000   0.00000   0.00001   0.00001   3.14159
   D49       -0.00001   0.00000   0.00000   0.00000   0.00000   0.00000
   D50       -3.14158   0.00000   0.00000  -0.00001  -0.00001  -3.14159
   D51       -3.14158   0.00000   0.00000  -0.00001  -0.00001  -3.14159
   D52        0.00003   0.00000   0.00000  -0.00002  -0.00002   0.00001
         Item               Value     Threshold  Converged?
 Maximum Force            0.037307     0.000015     NO 
 RMS     Force            0.010085     0.000010     NO 
 Maximum Displacement     0.402409     0.000060     NO 
 RMS     Displacement     0.126857     0.000040     NO 
 Predicted change in Energy=-1.728875D-02
 GradGradGradGradGradGradGradGradGradGradGradGradGradGradGradGradGradGrad

                          Input orientation:                          
 ---------------------------------------------------------------------
 Center     Atomic      Atomic             Coordinates (Angstroms)
 Number     Number       Type             X           Y           Z
 ---------------------------------------------------------------------
      1          6           0        1.075873   -0.355114   -0.200132
      2          6           0        1.662793    0.473032   -1.094745
      3          6           0        3.128864    0.679701   -1.186356
      4          6           0        3.720955    1.517633   -2.091715
      5          6           0        5.180543    1.725579   -2.185446
      6          6           0        5.770568    2.565696   -3.093538
      7          6           0        7.228171    2.776119   -3.190320
      8          6           0        7.814701    3.617488   -4.100222
      9          6           0        9.271610    3.830770   -4.200369
     10          6           0        9.854381    4.672806   -5.111426
     11          6           0       11.312097    4.888563   -5.214345
     12          6           0       11.891612    5.729811   -6.124833
     13          6           0       13.355140    5.947354   -6.229238
     14          6           0       13.927088    6.779434   -7.129922
     15          1           0       -0.013313   -0.480786   -0.164151
     16          1           0        1.670636   -0.929239    0.519995
     17          1           0        1.039723    1.035966   -1.804823
     18          1           0        3.751941    0.117499   -0.477118
     19          1           0        3.095974    2.079029   -2.800208
     20          1           0        5.806786    1.164931   -1.477675
     21          1           0        5.143351    3.125918   -3.800911
     22          1           0        7.857179    2.216865   -2.483873
     23          1           0        7.184742    4.176293   -4.806249
     24          1           0        9.903350    3.272897   -3.495227
     25          1           0        9.221982    5.230341   -5.816239
     26          1           0       11.945839    4.331664   -4.510123
     27          1           0       11.258788    6.287062   -6.829369
     28          1           0       13.989157    5.389996   -5.524450
     29          1           0       13.320875    7.348027   -7.844860
     30          1           0       15.014833    6.914056   -7.176374
 ---------------------------------------------------------------------
                    Distance matrix (angstroms):
                    1          2          3          4          5
     1  C    0.000000
     2  C    1.353009   0.000000
     3  C    2.501650   1.483397   0.000000
     4  C    3.752562   2.514193   1.368348   0.000000
     5  C    5.011893   3.890124   2.510265   1.477304   0.000000
     6  C    6.240440   5.024762   3.764694   2.510578   1.370605
     7  C    7.523072   6.377230   5.021469   3.884750   2.511212
     8  C    8.740942   7.534352   6.251261   5.020184   3.766228
     9  C   10.034621   8.877691   7.533049   6.372346   5.022805
    10  C   11.245577  10.043602   8.751208   7.529455   6.252381
    11  C   12.546663  11.383193  10.045124   8.873524   7.534895
    12  C   13.751676  12.552459  11.255128  10.038333   8.751633
    13  C   15.061594  13.893962  12.560077  11.382400  10.049859
    14  C   16.250461  15.053471  13.752613  12.539347  11.246837
    15  H    1.097002   2.141286   3.502129   4.653379   5.994149
    16  H    1.096333   2.138647   2.761657   4.124563   5.165938
    17  H    2.124016   1.099692   2.207699   2.739218   4.215072
    18  H    2.731561   2.207353   1.098780   2.137349   2.746855
    19  H    4.094662   2.746241   2.136286   1.098967   2.201883
    20  H    5.130711   4.218772   2.737076   2.202757   1.098838
    21  H    6.451944   5.145427   4.108288   2.744293   2.138238
    22  H    7.603727   6.583392   5.138423   4.213201   2.737663
    23  H    8.892033   7.614547   6.463739   5.141497   4.109918
    24  H   10.096756   9.028197   7.612438   6.578208   5.139516
    25  H   11.362089  10.102764   8.903383   7.610360   6.465234
    26  H   12.597543  11.501951  10.105608   9.023092   7.613477
    27  H   13.847637  12.600475  11.374610  10.100086   8.906077
    28  H   15.103230  13.990642  12.607613  11.498472  10.107847
    29  H   16.362161  15.124169  13.880898  12.619455  11.397627
    30  H   17.198936  16.023419  14.697747  13.510249  12.187818
                    6          7          8          9         10
     6  C    0.000000
     7  C    1.475889   0.000000
     8  C    2.509613   1.371073   0.000000
     9  C    3.883655   2.511599   1.475839   0.000000
    10  C    5.018895   3.766305   2.509288   1.370646   0.000000
    11  C    6.371975   5.023699   3.884415   2.512103   1.477186
    12  C    7.527785   6.251668   5.018183   3.764881   2.508896
    13  C    8.876595   7.538667   6.376319   5.027072   3.889638
    14  C   10.028798   8.741996   7.519193   6.241024   5.009905
    15  H    7.163494   8.497306   9.672967  11.004106  12.182217
    16  H    6.487036   7.640831   8.931330  10.134807  11.404801
    17  H    5.136318   6.576064   7.604830   9.017402  10.092494
    18  H    4.112685   5.149164   6.471694   7.623498   8.914449
    19  H    2.734290   4.208702   5.130621   6.570200   7.599044
    20  H    2.138800   2.747619   4.113940   5.150219   6.472430
    21  H    1.098920   2.200376   2.732643   4.207006   5.128754
    22  H    2.201663   1.098855   2.139190   2.748029   4.113939
    23  H    2.743590   2.138598   1.098903   2.200340   2.732514
    24  H    4.212051   2.737945   2.201640   1.098883   2.138747
    25  H    5.140592   4.110225   2.743438   2.138293   1.098880
    26  H    6.577182   5.139844   4.212407   2.738311   2.202757
    27  H    7.610883   6.466473   5.141654   4.110217   2.743995
    28  H    9.023924   7.615212   6.579827   5.141948   4.216791
    29  H   10.121901   8.926821   7.632640   6.484594   5.161884
    30  H   11.001555   9.676945   8.495409   7.165743   5.993119
                   11         12         13         14         15
    11  C    0.000000
    12  C    1.368402   0.000000
    13  C    2.514969   1.483287   0.000000
    14  C    3.752733   2.501015   1.353039   0.000000
    15  H   13.512930  14.691102  16.025660  17.192077   0.000000
    16  H   12.636742  13.891185  15.144877  16.375759   1.872124
    17  H   11.488647  12.588017  13.977363  15.080725   2.470066
    18  H   10.117328  11.386350  12.621232  13.862712   3.825314
    19  H    9.012559  10.086852  11.487935  12.575900   4.813431
    20  H    7.624735   8.913995  10.120600  11.375844   6.189288
    21  H    6.569485   7.597360   9.016137  10.078914   7.268117
    22  H    5.150719   6.471014   7.627049   8.902056   8.637307
    23  H    4.208198   5.129006   6.575360   7.591773   9.749331
    24  H    2.747783   4.111500   5.151930   6.457342  11.114244
    25  H    2.201742   2.733427   4.215171   5.124790  12.241476
    26  H    1.098951   2.136596   2.748079   4.096373  13.603987
    27  H    2.137041   1.098802   2.206864   2.729943  14.740731
    28  H    2.741214   2.208084   1.099706   2.124131  16.101803
    29  H    4.123562   2.760418   2.138526   1.096324  17.265114
    30  H    4.654292   3.501812   2.141533   1.097028  18.157647
                   16         17         18         19         20
    16  H    0.000000
    17  H    3.108836   0.000000
    18  H    2.534112   3.156345   0.000000
    19  H    4.701597   2.511363   3.110409   0.000000
    20  H    5.048165   4.780016   2.514084   3.151693   0.000000
    21  H    6.868353   5.019167   4.694061   2.507815   3.111758
    22  H    7.562705   6.952219   5.028656   4.773693   2.514579
    23  H    9.210901   7.525389   6.855604   5.014054   4.695366
    24  H   10.077576   9.296517   7.543564   6.946132   5.029500
    25  H   11.623731  10.031631   9.196125   7.520318   6.856694
    26  H   12.592021  11.709981  10.058046   9.290763   7.543998
    27  H   14.071986  12.539911  11.608934  10.028619   9.197889
    28  H   15.106754  14.159133  12.572803  11.706641  10.058765
    29  H   16.559348  15.071525  14.075818  12.560233  11.628983
    30  H   17.286381  16.084440  14.762315  13.586299  12.260332
                   21         22         23         24         25
    21  H    0.000000
    22  H    3.150528   0.000000
    23  H    2.506246   3.112067   0.000000
    24  H    4.772068   2.514927   3.150513   0.000000
    25  H    5.012522   4.695571   2.506281   3.111743   0.000000
    26  H    6.944829   5.029434   4.772827   2.514510   3.151659
    27  H    7.520834   6.857170   5.014600   4.694561   2.508320
    28  H    9.292197   7.544205   6.949026   5.029281   4.778765
    29  H   10.052444   9.215258   7.546203   6.870623   5.039923
    30  H   11.099094   9.762949   8.626886   7.275722   6.184010
                   26         27         28         29         30
    26  H    0.000000
    27  H    3.110389   0.000000
    28  H    2.514771   3.156336   0.000000
    29  H    4.702088   2.531615   3.108824   0.000000
    30  H    4.816261   3.823795   2.470551   1.872083   0.000000
 Stoichiometry    C14H16
 Framework group  C1[X(C14H16)]
 Deg. of freedom    84
 Full point group                 C1      NOp   1
 Largest Abelian subgroup         C1      NOp   1
 Largest concise Abelian subgroup C1      NOp   1
                         Standard orientation:                         
 ---------------------------------------------------------------------
 Center     Atomic      Atomic             Coordinates (Angstroms)
 Number     Number       Type             X           Y           Z
 ---------------------------------------------------------------------
      1          6           0       -8.123131    0.232331    0.000035
      2          6           0       -6.933196   -0.411631    0.000017
      3          6           0       -5.621975    0.282030    0.000011
      4          6           0       -4.419336   -0.370683   -0.000009
      5          6           0       -3.111956    0.317201   -0.000012
      6          6           0       -1.908950   -0.339560   -0.000023
      7          6           0       -0.600887    0.343975   -0.000025
      8          6           0        0.600557   -0.316610   -0.000024
      9          6           0        1.910640    0.362937   -0.000022
     10          6           0        3.109796   -0.300913   -0.000013
     11          6           0        4.422709    0.376093   -0.000009
     12          6           0        5.618664   -0.288900    0.000010
     13          6           0        6.937641    0.389655    0.000020
     14          6           0        8.119598   -0.268897    0.000034
     15          1           0       -9.072410   -0.317470    0.000042
     16          1           0       -8.178183    1.327281    0.000049
     17          1           0       -6.909882   -1.511076    0.000008
     18          1           0       -5.644631    1.380576    0.000019
     19          1           0       -4.398864   -1.469460   -0.000021
     20          1           0       -3.130795    1.415878   -0.000008
     21          1           0       -1.891242   -1.438338   -0.000031
     22          1           0       -0.616359    1.442722   -0.000024
     23          1           0        0.614899   -1.415419   -0.000023
     24          1           0        1.898496    1.461753   -0.000030
     25          1           0        3.121131   -1.399734   -0.000009
     26          1           0        4.412971    1.475001   -0.000017
     27          1           0        5.629422   -1.387649    0.000017
     28          1           0        6.927701    1.489316    0.000005
     29          1           0        8.160930   -1.364442    0.000043
     30          1           0        9.075766    0.268889    0.000044
 ---------------------------------------------------------------------
 Rotational constants (GHZ):     10.6407425      0.1048313      0.1038086
 Standard basis: STO-3G (5D, 7F)
 There are    86 symmetry adapted cartesian basis functions of A   symmetry.
 There are    86 symmetry adapted basis functions of A   symmetry.
    86 basis functions,   258 primitive gaussians,    86 cartesian basis functions
    50 alpha electrons       50 beta electrons
       nuclear repulsion energy       652.4793718929 Hartrees.
 NAtoms=   30 NActive=   30 NUniq=   30 SFac= 1.00D+00 NAtFMM=   60 NAOKFM=F Big=F
 Integral buffers will be    131072 words long.
 Raffenetti 2 integral format.
 Two-electron integral symmetry is turned on.
 One-electron integrals computed using PRISM.
 NBasis=    86 RedAO= T EigKep=  1.96D-01  NBF=    86
 NBsUse=    86 1.00D-06 EigRej= -1.00D+00 NBFU=    86
 Initial guess from the checkpoint file:  "/data/scratch/Gau-51434.chk"
 B after Tr=     0.000000    0.000000    0.000000
         Rot=    1.000000    0.000001    0.000000   -0.000408 Ang=   0.05 deg.
 ExpMin= 1.69D-01 ExpMax= 7.16D+01 ExpMxC= 7.16D+01 IAcc=1 IRadAn=         1 AccDes= 0.00D+00
 Harris functional with IExCor=  402 and IRadAn=       1 diagonalized for initial guess.
 HarFok:  IExCor=  402 AccDes= 0.00D+00 IRadAn=         1 IDoV= 1 UseB2=F ITyADJ=14
 ICtDFT=  3500011 ScaDFX=  1.000000  1.000000  1.000000  1.000000
 FoFCou: FMM=F IPFlag=           0 FMFlag=      100000 FMFlg1=           0
         NFxFlg=           0 DoJE=T BraDBF=F KetDBF=T FulRan=T
         wScrn=  0.000000 ICntrl=     500 IOpCl=  0 I1Cent=   200000004 NGrid=           0
         NMat0=    1 NMatS0=      1 NMatT0=    0 NMatD0=    1 NMtDS0=    0 NMtDT0=    0
 Petite list used in FoFCou.
 Keep R1 ints in memory in canonical form, NReq=7949877.
 Requested convergence on RMS density matrix=1.00D-08 within 128 cycles.
 Requested convergence on MAX density matrix=1.00D-06.
 Requested convergence on             energy=1.00D-06.
 No special actions if energy rises.
 Integral accuracy reduced to 1.0D-05 until final iterations.
 Initial convergence to 1.0D-05 achieved.  Increase integral accuracy.
 SCF Done:  E(RB3LYP) =  -536.358772322     A.U. after   12 cycles
            NFock= 12  Conv=0.73D-08     -V/T= 2.0170
 Calling FoFJK, ICntrl=      2127 FMM=F ISym2X=0 I1Cent= 0 IOpClX= 0 NMat=1 NMatS=1 NMatT=0.
 ***** Axes restored to original set *****
 -------------------------------------------------------------------
 Center     Atomic                   Forces (Hartrees/Bohr)
 Number     Number              X              Y              Z
 -------------------------------------------------------------------
      1        6           0.002248620    0.004448353   -0.004895930
      2        6           0.002456294   -0.003712706    0.004517928
      3        6          -0.003977478    0.003691691   -0.004645045
      4        6           0.006732353   -0.002742558    0.003827948
      5        6          -0.007438618    0.001947100   -0.002982608
      6        6           0.008239755   -0.001701690    0.002780974
      7        6          -0.008417485    0.001524563   -0.002594882
      8        6           0.008422038   -0.001473929    0.002536809
      9        6          -0.008212840    0.001726868   -0.002806594
     10        6           0.007431246   -0.001889196    0.002916466
     11        6          -0.006712679    0.002734030   -0.003817271
     12        6           0.004009515   -0.003661667    0.004615023
     13        6          -0.002462623    0.003697505   -0.004500098
     14        6          -0.002121898   -0.004458848    0.004919587
     15        1           0.000816026   -0.000554785    0.000720069
     16        1          -0.000736086   -0.000587151    0.000602584
     17        1           0.000427168    0.000589914   -0.000636152
     18        1           0.000662329   -0.000448726    0.000582198
     19        1          -0.000772391    0.000370916   -0.000504199
     20        1           0.000823238   -0.000359602    0.000495723
     21        1          -0.000880903    0.000311303   -0.000446450
     22        1           0.000862313   -0.000336383    0.000473252
     23        1          -0.000895634    0.000305296   -0.000440805
     24        1           0.000841577   -0.000338992    0.000473813
     25        1          -0.000843150    0.000334175   -0.000469068
     26        1           0.000739570   -0.000385504    0.000517512
     27        1          -0.000669895    0.000436696   -0.000569708
     28        1          -0.000446893   -0.000595910    0.000640594
     29        1           0.000720583    0.000599790   -0.000618553
     30        1          -0.000844050    0.000529447   -0.000693117
 -------------------------------------------------------------------
 Cartesian Forces:  Max     0.008422038 RMS     0.003132782

 GradGradGradGradGradGradGradGradGradGradGradGradGradGradGradGradGradGrad
 Berny optimization.
 Using GEDIIS/GDIIS optimizer.
 FormGI is forming the generalized inverse of G from B-inverse, IUseBI=4.
 Internal  Forces:  Max     0.008712882 RMS     0.002054456
 Search for a local minimum.
 Step number   2 out of a maximum of  133
 All quantities printed in internal units (Hartrees-Bohrs-Radians)
 Mixed Optimization -- RFO/linear search
 Update second derivatives using D2CorX and points    1    2
 DE= -1.44D-02 DEPred=-1.73D-02 R= 8.32D-01
 TightC=F SS=  1.41D+00  RLast= 3.00D-01 DXNew= 5.0454D-01 9.0000D-01
 Trust test= 8.32D-01 RLast= 3.00D-01 DXMaxT set to 5.05D-01
 ITU=  1  0
 Use linear search instead of GDIIS.
     Eigenvalues ---    0.01055   0.01056   0.01059   0.01060   0.01060
     Eigenvalues ---    0.01065   0.01995   0.01995   0.01995   0.01996
     Eigenvalues ---    0.01996   0.01996   0.01997   0.01997   0.01999
     Eigenvalues ---    0.02000   0.02030   0.02031   0.02884   0.02884
     Eigenvalues ---    0.02885   0.02887   0.02888   0.02945   0.02945
     Eigenvalues ---    0.02948   0.02948   0.15859   0.16000   0.16000
     Eigenvalues ---    0.16000   0.16000   0.16000   0.16000   0.16000
     Eigenvalues ---    0.16000   0.16000   0.16000   0.16000   0.16000
     Eigenvalues ---    0.16000   0.16000   0.16312   0.21939   0.22000
[...]
     15          1           0       -9.044801   -0.306061    0.000000
     16          1           0       -8.159776    1.335436    0.000000
     17          1           0       -6.877742   -1.498120    0.000000
     18          1           0       -5.617254    1.387530    0.000000
     19          1           0       -4.386986   -1.464782    0.000000
     20          1           0       -3.111948    1.411505    0.000000
     21          1           0       -1.888717   -1.444887    0.000000
     22          1           0       -0.610855    1.428676    0.000000
     23          1           0        0.610855   -1.428666    0.000000
     24          1           0        1.888719    1.444895    0.000000
     25          1           0        3.111945   -1.411498    0.000000
     26          1           0        4.386991    1.464784    0.000000
     27          1           0        5.617248   -1.387532    0.000000
     28          1           0        6.877749    1.498112    0.000000
     29          1           0        8.159769   -1.335450    0.000000
     30          1           0        9.044802    0.306042    0.000000
 ---------------------------------------------------------------------
 Rotational constants (GHZ):     10.7561364      0.1056208      0.1045937

 **********************************************************************

            Population analysis using the SCF density.

 **********************************************************************

 Orbital symmetries:
       Occupied  (A) (A) (A) (A) (A) (A) (A) (A) (A) (A) (A) (A)
                 (A) (A) (A) (A) (A) (A) (A) (A) (A) (A) (A) (A)
                 (A) (A) (A) (A) (A) (A) (A) (A) (A) (A) (A) (A)
                 (A) (A) (A) (A) (A) (A) (A) (A) (A) (A) (A) (A)
                 (A) (A)
       Virtual   (A) (A) (A) (A) (A) (A) (A) (A) (A) (A) (A) (A)
                 (A) (A) (A) (A) (A) (A) (A) (A) (A) (A) (A) (A)
                 (A) (A) (A) (A) (A) (A) (A) (A) (A) (A) (A) (A)
 The electronic state is 1-A.
 Alpha  occ. eigenvalues --  -10.00834 -10.00834 -10.00770 -10.00756 -10.00740
 Alpha  occ. eigenvalues --  -10.00729 -10.00680 -10.00660 -10.00642 -10.00632
 Alpha  occ. eigenvalues --  -10.00575 -10.00575  -9.99167  -9.99167  -0.78003
 Alpha  occ. eigenvalues --   -0.77093  -0.75647  -0.73691  -0.71257  -0.68414
 Alpha  occ. eigenvalues --   -0.65375  -0.59345  -0.55865  -0.52656  -0.52357
 Alpha  occ. eigenvalues --   -0.51885  -0.50813  -0.50409  -0.43953  -0.43596
 Alpha  occ. eigenvalues --   -0.42249  -0.40794  -0.39850  -0.37699  -0.36577
 Alpha  occ. eigenvalues --   -0.35376  -0.33917  -0.33424  -0.32404  -0.32010
 Alpha  occ. eigenvalues --   -0.31104  -0.30174  -0.29927  -0.29341  -0.28662
 Alpha  occ. eigenvalues --   -0.26621  -0.23824  -0.20313  -0.16204  -0.11901
 Alpha virt. eigenvalues --    0.00066   0.04933   0.09958   0.14593   0.18517
 Alpha virt. eigenvalues --    0.21483   0.23322   0.30934   0.33320   0.36407
 Alpha virt. eigenvalues --    0.39139   0.40761   0.41397   0.41660   0.42712
 Alpha virt. eigenvalues --    0.42822   0.42873   0.42959   0.43030   0.43272
 Alpha virt. eigenvalues --    0.43514   0.43924   0.52218   0.52493   0.55559
 Alpha virt. eigenvalues --    0.56814   0.60852   0.61046   0.65163   0.65457
 Alpha virt. eigenvalues --    0.69002   0.69116   0.72243   0.74989   0.76898
 Alpha virt. eigenvalues --    0.77712
          Condensed to atoms (all electrons):
               1          2          3          4          5          6
     1  C    4.856441   0.579451  -0.027602   0.000687  -0.000006   0.000000
     2  C    0.579451   4.790001   0.426428  -0.026675   0.000812  -0.000006
     3  C   -0.027602   0.426428   4.818862   0.557846  -0.026980   0.000696
     4  C    0.000687  -0.026675   0.557846   4.809076   0.437529  -0.026938
     5  C   -0.000006   0.000812  -0.026980   0.437529   4.813819   0.552084
     6  C    0.000000  -0.000006   0.000696  -0.026938   0.552084   4.811310
     7  C    0.000000   0.000000  -0.000006   0.000815  -0.027020   0.440657
     8  C    0.000000   0.000000   0.000000  -0.000006   0.000701  -0.027007
     9  C    0.000000   0.000000   0.000000   0.000000  -0.000006   0.000815
    10  C    0.000000   0.000000   0.000000   0.000000   0.000000  -0.000006
    11  C    0.000000   0.000000   0.000000   0.000000   0.000000   0.000000
    12  C    0.000000   0.000000   0.000000   0.000000   0.000000   0.000000
    13  C    0.000000   0.000000   0.000000   0.000000   0.000000   0.000000
    14  C    0.000000   0.000000   0.000000   0.000000   0.000000   0.000000
    15  H    0.388067  -0.023832   0.001413  -0.000019   0.000000   0.000000
    16  H    0.386161  -0.024407  -0.004210   0.000025  -0.000001   0.000000
    17  H   -0.026787   0.385309  -0.025318  -0.003235   0.000003   0.000000
    18  H   -0.003080  -0.024622   0.384227  -0.026607  -0.004159   0.000024
    19  H    0.000027  -0.004219  -0.026729   0.384336  -0.024976  -0.003290
    20  H    0.000000   0.000004  -0.003264  -0.024896   0.384352  -0.026586
    21  H    0.000000  -0.000001   0.000025  -0.004169  -0.026624   0.384378
    22  H    0.000000   0.000000   0.000000   0.000005  -0.003304  -0.024981
    23  H    0.000000   0.000000   0.000000  -0.000001   0.000024  -0.004154
    24  H    0.000000   0.000000   0.000000   0.000000   0.000000   0.000005
    25  H    0.000000   0.000000   0.000000   0.000000   0.000000  -0.000001
    26  H    0.000000   0.000000   0.000000   0.000000   0.000000   0.000000
    27  H    0.000000   0.000000   0.000000   0.000000   0.000000   0.000000
    28  H    0.000000   0.000000   0.000000   0.000000   0.000000   0.000000
    29  H    0.000000   0.000000   0.000000   0.000000   0.000000   0.000000
    30  H    0.000000   0.000000   0.000000   0.000000   0.000000   0.000000
               7          8          9         10         11         12
     1  C    0.000000   0.000000   0.000000   0.000000   0.000000   0.000000
     2  C    0.000000   0.000000   0.000000   0.000000   0.000000   0.000000
     3  C   -0.000006   0.000000   0.000000   0.000000   0.000000   0.000000
     4  C    0.000815  -0.000006   0.000000   0.000000   0.000000   0.000000
     5  C   -0.027020   0.000701  -0.000006   0.000000   0.000000   0.000000
     6  C    0.440657  -0.027007   0.000815  -0.000006   0.000000   0.000000
     7  C    4.812480   0.550682  -0.027007   0.000701  -0.000006   0.000000
     8  C    0.550682   4.812480   0.440657  -0.027020   0.000815  -0.000006
     9  C   -0.027007   0.440657   4.811310   0.552084  -0.026938   0.000696
    10  C    0.000701  -0.027020   0.552084   4.813819   0.437529  -0.026980
    11  C   -0.000006   0.000815  -0.026938   0.437529   4.809075   0.557846
    12  C    0.000000  -0.000006   0.000696  -0.026980   0.557846   4.818862
    13  C    0.000000   0.000000  -0.000006   0.000812  -0.026675   0.426428
    14  C    0.000000   0.000000   0.000000  -0.000006   0.000687  -0.027602
    15  H    0.000000   0.000000   0.000000   0.000000   0.000000   0.000000
    16  H    0.000000   0.000000   0.000000   0.000000   0.000000   0.000000
    17  H    0.000000   0.000000   0.000000   0.000000   0.000000   0.000000
    18  H   -0.000001   0.000000   0.000000   0.000000   0.000000   0.000000
    19  H    0.000005   0.000000   0.000000   0.000000   0.000000   0.000000
    20  H   -0.004153   0.000024  -0.000001   0.000000   0.000000   0.000000
    21  H   -0.024999  -0.003309   0.000005   0.000000   0.000000   0.000000
    22  H    0.384372  -0.026591  -0.004154   0.000024  -0.000001   0.000000
    23  H   -0.026591   0.384372  -0.024981  -0.003304   0.000005   0.000000
    24  H   -0.003309  -0.024999   0.384378  -0.026624  -0.004169   0.000025
    25  H    0.000024  -0.004153  -0.026586   0.384352  -0.024896  -0.003264
    26  H    0.000000   0.000005  -0.003290  -0.024976   0.384336  -0.026729
    27  H    0.000000  -0.000001   0.000024  -0.004159  -0.026607   0.384227
    28  H    0.000000   0.000000   0.000000   0.000003  -0.003235  -0.025318
    29  H    0.000000   0.000000   0.000000  -0.000001   0.000025  -0.004210
    30  H    0.000000   0.000000   0.000000   0.000000  -0.000019   0.001413
              13         14         15         16         17         18
     1  C    0.000000   0.000000   0.388067   0.386161  -0.026787  -0.003080
     2  C    0.000000   0.000000  -0.023832  -0.024407   0.385309  -0.024622
     3  C    0.000000   0.000000   0.001413  -0.004210  -0.025318   0.384227
     4  C    0.000000   0.000000  -0.000019   0.000025  -0.003235  -0.026607
     5  C    0.000000   0.000000   0.000000  -0.000001   0.000003  -0.004159
     6  C    0.000000   0.000000   0.000000   0.000000   0.000000   0.000024
     7  C    0.000000   0.000000   0.000000   0.000000   0.000000  -0.000001
     8  C    0.000000   0.000000   0.000000   0.000000   0.000000   0.000000
     9  C   -0.000006   0.000000   0.000000   0.000000   0.000000   0.000000
    10  C    0.000812  -0.000006   0.000000   0.000000   0.000000   0.000000
    11  C   -0.026675   0.000687   0.000000   0.000000   0.000000   0.000000
    12  C    0.426428  -0.027602   0.000000   0.000000   0.000000   0.000000
    13  C    4.790001   0.579451   0.000000   0.000000   0.000000   0.000000
    14  C    0.579451   4.856441   0.000000   0.000000   0.000000   0.000000
    15  H    0.000000   0.000000   0.584154  -0.023567  -0.004628   0.000000
    16  H    0.000000   0.000000  -0.023567   0.586640   0.002005   0.000954
    17  H    0.000000   0.000000  -0.004628   0.002005   0.592543   0.001555
    18  H    0.000000   0.000000   0.000000   0.000954   0.001555   0.592386
    19  H    0.000000   0.000000  -0.000001   0.000001   0.001016   0.001970
    20  H    0.000000   0.000000   0.000000   0.000000   0.000000   0.000975
    21  H    0.000000   0.000000   0.000000   0.000000   0.000000   0.000001
    22  H    0.000000   0.000000   0.000000   0.000000   0.000000   0.000000
    23  H    0.000000   0.000000   0.000000   0.000000   0.000000   0.000000
    24  H   -0.000001   0.000000   0.000000   0.000000   0.000000   0.000000
    25  H    0.000004   0.000000   0.000000   0.000000   0.000000   0.000000
    26  H   -0.004219   0.000027   0.000000   0.000000   0.000000   0.000000
    27  H   -0.024622  -0.003080   0.000000   0.000000   0.000000   0.000000
    28  H    0.385309  -0.026787   0.000000   0.000000   0.000000   0.000000
    29  H   -0.024407   0.386161   0.000000   0.000000   0.000000   0.000000
    30  H   -0.023832   0.388067   0.000000   0.000000   0.000000   0.000000
              19         20         21         22         23         24
     1  C    0.000027   0.000000   0.000000   0.000000   0.000000   0.000000
     2  C   -0.004219   0.000004  -0.000001   0.000000   0.000000   0.000000
     3  C   -0.026729  -0.003264   0.000025   0.000000   0.000000   0.000000
     4  C    0.384336  -0.024896  -0.004169   0.000005  -0.000001   0.000000
     5  C   -0.024976   0.384352  -0.026624  -0.003304   0.000024   0.000000
     6  C   -0.003290  -0.026586   0.384378  -0.024981  -0.004154   0.000005
     7  C    0.000005  -0.004153  -0.024999   0.384372  -0.026591  -0.003309
     8  C    0.000000   0.000024  -0.003309  -0.026591   0.384372  -0.024999
     9  C    0.000000  -0.000001   0.000005  -0.004154  -0.024981   0.384378
    10  C    0.000000   0.000000   0.000000   0.000024  -0.003304  -0.026624
    11  C    0.000000   0.000000   0.000000  -0.000001   0.000005  -0.004169
    12  C    0.000000   0.000000   0.000000   0.000000   0.000000   0.000025
    13  C    0.000000   0.000000   0.000000   0.000000   0.000000  -0.000001
    14  C    0.000000   0.000000   0.000000   0.000000   0.000000   0.000000
    15  H   -0.000001   0.000000   0.000000   0.000000   0.000000   0.000000
    16  H    0.000001   0.000000   0.000000   0.000000   0.000000   0.000000
    17  H    0.001016   0.000000   0.000000   0.000000   0.000000   0.000000
    18  H    0.001970   0.000975   0.000001   0.000000   0.000000   0.000000
    19  H    0.592817   0.001582   0.000984   0.000000   0.000000   0.000000
    20  H    0.001582   0.592524   0.001956   0.000980   0.000001   0.000000
    21  H    0.000984   0.001956   0.592701   0.001593   0.000982   0.000000
    22  H    0.000000   0.000980   0.001593   0.592649   0.001952   0.000982
    23  H    0.000000   0.000001   0.000982   0.001952   0.592649   0.001593
    24  H    0.000000   0.000000   0.000000   0.000982   0.001593   0.592701
    25  H    0.000000   0.000000   0.000000   0.000001   0.000980   0.001956
    26  H    0.000000   0.000000   0.000000   0.000000   0.000000   0.000984
    27  H    0.000000   0.000000   0.000000   0.000000   0.000000   0.000001
    28  H    0.000000   0.000000   0.000000   0.000000   0.000000   0.000000
    29  H    0.000000   0.000000   0.000000   0.000000   0.000000   0.000000
    30  H    0.000000   0.000000   0.000000   0.000000   0.000000   0.000000
              25         26         27         28         29         30
     1  C    0.000000   0.000000   0.000000   0.000000   0.000000   0.000000
     2  C    0.000000   0.000000   0.000000   0.000000   0.000000   0.000000
     3  C    0.000000   0.000000   0.000000   0.000000   0.000000   0.000000
     4  C    0.000000   0.000000   0.000000   0.000000   0.000000   0.000000
     5  C    0.000000   0.000000   0.000000   0.000000   0.000000   0.000000
     6  C   -0.000001   0.000000   0.000000   0.000000   0.000000   0.000000
     7  C    0.000024   0.000000   0.000000   0.000000   0.000000   0.000000
     8  C   -0.004153   0.000005  -0.000001   0.000000   0.000000   0.000000
     9  C   -0.026586  -0.003290   0.000024   0.000000   0.000000   0.000000
    10  C    0.384352  -0.024976  -0.004159   0.000003  -0.000001   0.000000
    11  C   -0.024896   0.384336  -0.026607  -0.003235   0.000025  -0.000019
    12  C   -0.003264  -0.026729   0.384227  -0.025318  -0.004210   0.001413
    13  C    0.000004  -0.004219  -0.024622   0.385309  -0.024407  -0.023832
    14  C    0.000000   0.000027  -0.003080  -0.026787   0.386161   0.388067
    15  H    0.000000   0.000000   0.000000   0.000000   0.000000   0.000000
    16  H    0.000000   0.000000   0.000000   0.000000   0.000000   0.000000
    17  H    0.000000   0.000000   0.000000   0.000000   0.000000   0.000000
    18  H    0.000000   0.000000   0.000000   0.000000   0.000000   0.000000
    19  H    0.000000   0.000000   0.000000   0.000000   0.000000   0.000000
    20  H    0.000000   0.000000   0.000000   0.000000   0.000000   0.000000
    21  H    0.000000   0.000000   0.000000   0.000000   0.000000   0.000000
    22  H    0.000001   0.000000   0.000000   0.000000   0.000000   0.000000
    23  H    0.000980   0.000000   0.000000   0.000000   0.000000   0.000000
    24  H    0.001956   0.000984   0.000001   0.000000   0.000000   0.000000
    25  H    0.592524   0.001582   0.000975   0.000000   0.000000   0.000000
    26  H    0.001582   0.592816   0.001970   0.001016   0.000001  -0.000001
    27  H    0.000975   0.001970   0.592386   0.001555   0.000954   0.000000
    28  H    0.000000   0.001016   0.001555   0.592543   0.002005  -0.004628
    29  H    0.000000   0.000001   0.000954   0.002005   0.586640  -0.023567
    30  H    0.000000  -0.000001   0.000000  -0.004628  -0.023567   0.584154
 Mulliken charges:
               1
     1  C   -0.153359
     2  C   -0.078244
     3  C   -0.075387
     4  C   -0.077773
     5  C   -0.076250
     6  C   -0.077002
     7  C   -0.076644
     8  C   -0.076644
     9  C   -0.077002
    10  C   -0.076250
    11  C   -0.077773
    12  C   -0.075387
    13  C   -0.078244
    14  C   -0.153359
    15  H    0.078411
    16  H    0.076399
    17  H    0.077539
    18  H    0.076377
    19  H    0.076479
    20  H    0.076504
    21  H    0.076478
    22  H    0.076472
    23  H    0.076472
    24  H    0.076478
    25  H    0.076504
    26  H    0.076479
    27  H    0.076377
    28  H    0.077539
    29  H    0.076399
    30  H    0.078411
 Sum of Mulliken charges =   0.00000
 Mulliken charges with hydrogens summed into heavy atoms:
               1
     1  C    0.001450
     2  C   -0.000705
     3  C    0.000990
     4  C   -0.001294
     5  C    0.000254
     6  C   -0.000524
     7  C   -0.000171
     8  C   -0.000171
     9  C   -0.000524
    10  C    0.000254
    11  C   -0.001294
    12  C    0.000990
    13  C   -0.000705
    14  C    0.001450
 Electronic spatial extent (au):  <R**2>=           9769.1826
 Charge=              0.0000 electrons
 Dipole moment (field-independent basis, Debye):
    X=              0.0000    Y=              0.0000    Z=              0.0000  Tot=              0.0000
 Quadrupole moment (field-independent basis, Debye-Ang):
   XX=            -72.4293   YY=            -71.6502   ZZ=            -83.8382
   XY=             -0.1789   XZ=              0.0000   YZ=              0.0000
 Traceless Quadrupole moment (field-independent basis, Debye-Ang):
   XX=              3.5432   YY=              4.3224   ZZ=             -7.8656
   XY=             -0.1789   XZ=              0.0000   YZ=              0.0000
 Octapole moment (field-independent basis, Debye-Ang**2):
  XXX=              0.0002  YYY=              0.0000  ZZZ=              0.0000  XYY=              0.0000
  XXY=              0.0000  XXZ=              0.0000  XZZ=              0.0000  YZZ=              0.0000
  YYZ=              0.0000  XYZ=              0.0000
 Hexadecapole moment (field-independent basis, Debye-Ang**3):
 XXXX=         -11610.1151 YYYY=           -206.6437 ZZZZ=            -68.0283 XXXY=             15.6112
 XXXZ=             -0.0002 YYYX=             -4.8811 YYYZ=              0.0000 ZZZX=              0.0000
 ZZZY=              0.0000 XXYY=          -1957.2465 XXZZ=          -2246.6060 YYZZ=            -52.8725
 XXYZ=              0.0000 YYXZ=              0.0000 ZZXY=             -0.3095
 N-N= 6.547585582699D+02 E-N=-2.550469881873D+03  KE= 5.275097487265D+02
 1\1\GINC-PC-AVL46\FOpt\RB3LYP\STO-3G\C14H16\BING\28-Jan-2019\0\\# opt(
 tight) b3lyp/sto-3g\\c14h16\\0,1\C,1.1047472477,-0.3479088537,-0.20549
 42202\C,1.692732648,0.4768005952,-1.0960726811\C,3.1507548096,0.686090
 5792,-1.1915127336\C,3.7399894475,1.522383461,-2.0952991317\C,5.186371
 8096,1.7333912684,-2.1938774148\C,5.7752875235,2.5727490007,-3.1012232
 207\C,7.2184361877,2.7842635137,-3.2007072463\C,7.8073195496,3.6243569
 187,-4.1089030543\C,9.2504679672,3.8358723375,-4.2083883298\C,9.839381
 087,4.6752307671,-5.1157351772\C,11.2857627262,4.886241451,-5.21431669
 71\C,11.8749926603,5.7225356361,-6.1181049917\C,13.3330139278,5.931829
 8433,-6.2135499426\C,13.9209933809,6.7565409812,-7.1041308774\H,0.0167
 173529,-0.4758337017,-0.1667950782\H,1.6915985883,-0.9261501551,0.5186
 01907\H,1.0735551745,1.0422365301,-1.8086550913\H,3.7789655363,0.12541
 90143,-0.4835130482\H,3.1080859476,2.081294206,-2.8016404495\H,5.81979
 8115,1.1753525308,-1.4883877737\H,5.1408430177,3.1302963338,-3.8062487
 797\H,7.853248288,2.2269215767,-2.4958814555\H,7.1725070443,4.18169862
 36,-4.8137286925\H,9.8849140025,3.2783258494,-3.5033635123\H,9.2059525
 162,5.2332684143,-5.8212236707\H,11.917669459,4.3273323717,-4.50797698
 76\H,11.2467782197,6.2832053377,-6.8261029141\H,13.9521957742,5.366396
 038,-5.5009695967\H,13.3341372813,7.334780072,-7.8282249456\H,15.00902
 27124,6.8844694289,-7.1428342187\\Version=ES64L-G09RevD.01\State=1-A\H
 F=-536.3594335\RMSD=3.366e-09\RMSF=3.424e-07\Dipole=0.0000015,0.000001
 ,-0.0000009\Quadrupole=2.6701116,-1.9755036,-0.694608,0.268161,0.54110
 36,-4.4303626\PG=C01 [X(C14H16)]\\@


 GOORD'S AXIOM:  A MEETING IS AN EVENT AT WHICH
 THE MINUTES ARE KEPT AND THE HOURS ARE LOST.
 Job cpu time:       0 days  0 hours  3 minutes 11.4 seconds.
 File lengths (MBytes):  RWF=      6 Int=      0 D2E=      0 Chk=      2 Scr=      1
 Normal termination of Gaussian 09 at Mon Jan 28 19:29:53 2019.
