 Entering Gaussian System, Link 0=g09
 Input=c16h34.com
 Output=c16h34.out
 Initial command:
 /apps/g09_d.01/g09/l1.exe "/data/scratch/Gau-51454.inp" -scrdir="/data/scratch/"
 Entering Link 1 = /apps/g09_d.01/g09/l1.exe PID=     51469.
  
 Copyright (c) 1988,1990,1992,1993,1995,1998,2003,2009,2013,
            Gaussian, Inc.  All Rights Reserved.
  
 This is part of the Gaussian(R) 09 program.  It is based on
 the Gaussian(R) 03 system (copyright 2003, Gaussian, Inc.),
 the Gaussian(R) 98 system (copyright 1998, Gaussian, Inc.),
 the Gaussian(R) 94 system (copyright 1995, Gaussian, Inc.),
 the Gaussian 92(TM) system (copyright 1992, Gaussian, Inc.),
 the Gaussian 90(TM) system (copyright 1990, Gaussian, Inc.),
 the Gaussian 88(TM) system (copyright 1988, Gaussian, Inc.),
 the Gaussian 86(TM) system (copyright 1986, Carnegie Mellon
 University), and the Gaussian 82(TM) system (copyright 1983,
 Carnegie Mellon University). Gaussian is a federally registered
 trademark of Gaussian, Inc.
  
 This software contains proprietary and confidential information,
 including trade secrets, belonging to Gaussian, Inc.
  
 This software is provided under written license and may be
 used, copied, transmitted, or stored only in accord with that
 written license.
  
 The following legend is applicable only to US Government
 contracts under FAR:
  
                    RESTRICTED RIGHTS LEGEND
  
 Use, reproduction and disclosure by the US Government is
 subject to restrictions as set forth in subparagraphs (a)
 and (c) of the Commercial Computer Software - Restricted
 Rights clause in FAR 52.227-19.
  
 Gaussian, Inc.
 340 Quinnipiac St., Bldg. 40, Wallingford CT 06492
  
  
 ---------------------------------------------------------------
 Warning -- This program may not be used in any manner that
 competes with the business of Gaussian, Inc. or will provide
 assistance to any competitor of Gaussian, Inc.  The licensee
 of this program is prohibited from giving any competitor of
 Gaussian, Inc. access to this program.  By using this program,
 the user acknowledges that Gaussian, Inc. is engaged in the
 business of creating and licensing software in the field of
 computational chemistry and represents and warrants to the
 licensee that it is not a competitor of Gaussian, Inc. and that
 it will not use this program in any manner prohibited above.
 ---------------------------------------------------------------
  

 Cite this work as:
 Gaussian 09, Revision D.01,
 M. J. Frisch, G. W. Trucks, H. B. Schlegel, G. E. Scuseria, 
 M. A. Robb, J. R. Cheeseman, G. Scalmani, V. Barone, B. Mennucci, 
 G. A. Petersson, H. Nakatsuji, M. Caricato, X. Li, H. P. Hratchian, 
 A. F. Izmaylov, J. Bloino, G. Zheng, J. L. Sonnenberg, M. Hada, 
 M. Ehara, K. Toyota, R. Fukuda, J. Hasegawa, M. Ishida, T. Nakajima, 
 Y. Honda, O. Kitao, H. Nakai, T. Vreven, J. A. Montgomery, Jr., 
 J. E. Peralta, F. Ogliaro, M. Bearpark, J. J. Heyd, E. Brothers, 
 K. N. Kudin, V. N. Staroverov, T. Keith, R. Kobayashi, J. Normand, 
 K. Raghavachari, A. Rendell, J. C. Burant, S. S. Iyengar, J. Tomasi, 
 M. Cossi, N. Rega, J. M. Millam, M. Klene, J. E. Knox, J. B. Cross, 
 V. Bakken, C. Adamo, J. Jaramillo, R. Gomperts, R. E. Stratmann, 
 O. Yazyev, A. J. Austin, R. Cammi, C. Pomelli, J. W. Ochterski, 
 R. L. Martin, K. Morokuma, V. G. Zakrzewski, G. A. Voth, 
 P. Salvador, J. J. Dannenberg, S. Dapprich, A. D. Daniels, 
 O. Farkas, J. B. Foresman, J. V. Ortiz, J. Cioslowski, 
 and D. J. Fox, Gaussian, Inc., Wallingford CT, 2013.
 
 ******************************************
 Gaussian 09:  ES64L-G09RevD.01 24-Apr-2013
                28-Jan-2019 
 ******************************************
 %nproc=6
 Will use up to    6 processors via shared memory.
 -------------------------
 # opt(tight) b3lyp/sto-3g
 -------------------------
 1/7=10,14=-1,18=20,19=15,26=3,38=1/1,3;
 2/9=110,12=2,17=6,18=5,40=1/2;
 3/6=3,11=2,16=1,25=1,30=1,71=1,74=-5/1,2,3;
 4//1;
 5/5=2,38=5/2;
 6/7=2,8=2,9=2,10=2,28=1/1;
 7//1,2,3,16;
 1/7=10,14=-1,18=20,19=15,26=3/3(2);
 2/9=110/2;
 99//99;
 2/9=110/2;
 3/6=3,11=2,16=1,25=1,30=1,71=1,74=-5/1,2,3;
 4/5=5,16=3,69=1/1;
 5/5=2,38=5/2;
 7//1,2,3,16;
 1/7=10,14=-1,18=20,19=15,26=3/3(-5);
 2/9=110/2;
 6/7=2,8=2,9=2,10=2,19=2,28=1/1;
 99/9=1/99;
 ------
 c16h34
 ------
 Symbolic Z-matrix:
 Charge =  0 Multiplicity = 1
 C                     0.13036  -1.20598  -2.47703 
 C                     0.533    -2.55294  -1.88384 
 C                     1.78983  -2.42192  -1.01595 
 C                     2.19152  -3.77744  -0.42287 
 C                     3.44877  -3.64774   0.44522 
 C                     3.85081  -5.00436   1.03546 
 C                     5.10855  -4.87713   1.90314 
 C                     5.51042  -6.23607   2.48808 
 C                     6.76903  -6.11374   3.35513 
 C                     7.17004  -7.47623   3.93249 
 C                     8.42976  -7.36058   4.79873 
 C                     8.82965  -8.72711   5.36758 
 C                     10.09039  -8.61797   6.23311 
 C                     10.48956  -9.98769   6.79489 
 C                     11.75059  -9.882     7.65986 
 C                     12.15103  -11.24488   8.21737 
 H                    -0.78073  -1.33071  -3.09936 
 H                     0.94606  -0.80653  -3.11669 
 H                    -0.08881  -0.47756  -1.66744 
 H                     0.72477  -3.26735  -2.71405 
 H                    -0.30809  -2.9394   -1.26771 
 H                     1.59204  -1.7037   -0.18969 
 H                     2.62573  -2.03121  -1.6375 
 H                     2.38907  -4.49513  -1.24966 
 H                     1.35554  -4.16856   0.1983 
 H                     3.25129  -2.93111   1.27288 
 H                     4.28455  -3.25596  -0.17574 
 H                     4.04794  -5.72016   0.20692 
 H                     3.01515  -5.39692   1.65612 
 H                     4.91175  -4.16316   2.73325 
 H                     5.94399  -4.48353   1.28286 
 H                     5.70637  -6.94865   1.6565 
 H                     4.67501  -6.63059   3.10784 
 H                     6.57363  -5.40369   4.18893 
 H                     7.6042   -5.71781   2.73597 
 H                     7.36423  -8.18449   3.09681 
 H                     6.33482  -7.87313   4.55099 
 H                     8.23616  -6.65514   5.63686 
 H                     9.26471  -6.96207   4.18095 
 H                     9.02208  -9.43075   4.52761 
 H                     7.99458  -9.12654   5.98465 
 H                     9.89834  -7.91672   7.07512 
 H                     10.92523  -8.21711   5.61668 
 H                     10.68123  -10.68784   5.95179 
 H                     9.65481  -10.38946   7.41091 
 H                     11.56492  -9.18752   8.50813 
 H                     12.59031  -9.48358   7.04954 
 H                     11.33666  -11.65776   8.85017 
 H                     13.06526  -11.13919   8.83857 
 H                     12.36416  -11.95344   7.38869 
 

 GradGradGradGradGradGradGradGradGradGradGradGradGradGradGradGradGradGrad
 Berny optimization.
 Initialization pass.
                           ----------------------------
                           !    Initial Parameters    !
                           ! (Angstroms and Degrees)  !
 --------------------------                            --------------------------
 ! Name  Definition              Value          Derivative Info.                !
 --------------------------------------------------------------------------------
 ! R1    R(1,2)                  1.5259         estimate D2E/DX2                !
 ! R2    R(1,17)                 1.1104         estimate D2E/DX2                !
 ! R3    R(1,18)                 1.1109         estimate D2E/DX2                !
 ! R4    R(1,19)                 1.1109         estimate D2E/DX2                !
 ! R5    R(2,3)                  1.533          estimate D2E/DX2                !
 ! R6    R(2,20)                 1.1119         estimate D2E/DX2                !
 ! R7    R(2,21)                 1.1119         estimate D2E/DX2                !
 ! R8    R(3,4)                  1.5331         estimate D2E/DX2                !
 ! R9    R(3,22)                 1.1125         estimate D2E/DX2                !
 ! R10   R(3,23)                 1.1125         estimate D2E/DX2                !
 ! R11   R(4,5)                  1.5333         estimate D2E/DX2                !
 ! R12   R(4,24)                 1.1125         estimate D2E/DX2                !
 ! R13   R(4,25)                 1.1125         estimate D2E/DX2                !
 ! R14   R(5,6)                  1.5331         estimate D2E/DX2                !
 ! R15   R(5,26)                 1.1125         estimate D2E/DX2                !
 ! R16   R(5,27)                 1.1125         estimate D2E/DX2                !
 ! R17   R(6,7)                  1.5333         estimate D2E/DX2                !
 ! R18   R(6,28)                 1.1125         estimate D2E/DX2                !
 ! R19   R(6,29)                 1.1125         estimate D2E/DX2                !
 ! R20   R(7,8)                  1.5331         estimate D2E/DX2                !
 ! R21   R(7,30)                 1.1125         estimate D2E/DX2                !
 ! R22   R(7,31)                 1.1125         estimate D2E/DX2                !
 ! R23   R(8,9)                  1.5332         estimate D2E/DX2                !
 ! R24   R(8,32)                 1.1125         estimate D2E/DX2                !
 ! R25   R(8,33)                 1.1125         estimate D2E/DX2                !
 ! R26   R(9,10)                 1.5331         estimate D2E/DX2                !
 ! R27   R(9,34)                 1.1125         estimate D2E/DX2                !
 ! R28   R(9,35)                 1.1125         estimate D2E/DX2                !
 ! R29   R(10,11)                1.5332         estimate D2E/DX2                !
 ! R30   R(10,36)                1.1125         estimate D2E/DX2                !
 ! R31   R(10,37)                1.1125         estimate D2E/DX2                !
 ! R32   R(11,12)                1.5333         estimate D2E/DX2                !
 ! R33   R(11,38)                1.1125         estimate D2E/DX2                !
 ! R34   R(11,39)                1.1125         estimate D2E/DX2                !
 ! R35   R(12,13)                1.5331         estimate D2E/DX2                !
 ! R36   R(12,40)                1.1125         estimate D2E/DX2                !
 ! R37   R(12,41)                1.1125         estimate D2E/DX2                !
 ! R38   R(13,14)                1.5333         estimate D2E/DX2                !
 ! R39   R(13,42)                1.1125         estimate D2E/DX2                !
 ! R40   R(13,43)                1.1125         estimate D2E/DX2                !
 ! R41   R(14,15)                1.5328         estimate D2E/DX2                !
 ! R42   R(14,44)                1.1125         estimate D2E/DX2                !
 ! R43   R(14,45)                1.1125         estimate D2E/DX2                !
 ! R44   R(15,16)                1.526          estimate D2E/DX2                !
 ! R45   R(15,46)                1.1119         estimate D2E/DX2                !
 ! R46   R(15,47)                1.1119         estimate D2E/DX2                !
 ! R47   R(16,48)                1.1109         estimate D2E/DX2                !
 ! R48   R(16,49)                1.1103         estimate D2E/DX2                !
 ! R49   R(16,50)                1.1109         estimate D2E/DX2                !
 ! A1    A(2,1,17)             109.5871         estimate D2E/DX2                !
 ! A2    A(2,1,18)             110.3347         estimate D2E/DX2                !
 ! A3    A(2,1,19)             110.3388         estimate D2E/DX2                !
 ! A4    A(17,1,18)            108.6725         estimate D2E/DX2                !
 ! A5    A(17,1,19)            108.6768         estimate D2E/DX2                !
 ! A6    A(18,1,19)            109.1914         estimate D2E/DX2                !
 ! A7    A(1,2,3)              111.1608         estimate D2E/DX2                !
 ! A8    A(1,2,20)             108.8086         estimate D2E/DX2                !
 ! A9    A(1,2,21)             108.8211         estimate D2E/DX2                !
 ! A10   A(3,2,20)             109.6467         estimate D2E/DX2                !
 ! A11   A(3,2,21)             109.6431         estimate D2E/DX2                !
 ! A12   A(20,2,21)            108.7154         estimate D2E/DX2                !
 ! A13   A(2,3,4)              110.9927         estimate D2E/DX2                !
 ! A14   A(2,3,22)             109.2623         estimate D2E/DX2                !
 ! A15   A(2,3,23)             109.2521         estimate D2E/DX2                !
 ! A16   A(4,3,22)             109.2729         estimate D2E/DX2                !
 ! A17   A(4,3,23)             109.2547         estimate D2E/DX2                !
 ! A18   A(22,3,23)            108.7714         estimate D2E/DX2                !
 ! A19   A(3,4,5)              111.042          estimate D2E/DX2                !
 ! A20   A(3,4,24)             109.2325         estimate D2E/DX2                !
 ! A21   A(3,4,25)             109.2654         estimate D2E/DX2                !
 ! A22   A(5,4,24)             109.2515         estimate D2E/DX2                !
 ! A23   A(5,4,25)             109.2547         estimate D2E/DX2                !
 ! A24   A(24,4,25)            108.7588         estimate D2E/DX2                !
 ! A25   A(4,5,6)              110.9858         estimate D2E/DX2                !
 ! A26   A(4,5,26)             109.2775         estimate D2E/DX2                !
 ! A27   A(4,5,27)             109.2559         estimate D2E/DX2                !
 ! A28   A(6,5,26)             109.2775         estimate D2E/DX2                !
 ! A29   A(6,5,27)             109.2389         estimate D2E/DX2                !
 ! A30   A(26,5,27)            108.7706         estimate D2E/DX2                !
 ! A31   A(5,6,7)              111.0727         estimate D2E/DX2                !
 ! A32   A(5,6,28)             109.2129         estimate D2E/DX2                !
 ! A33   A(5,6,29)             109.2717         estimate D2E/DX2                !
 ! A34   A(7,6,28)             109.2375         estimate D2E/DX2                !
 ! A35   A(7,6,29)             109.2527         estimate D2E/DX2                !
 ! A36   A(28,6,29)            108.7569         estimate D2E/DX2                !
 ! A37   A(6,7,8)              110.9396         estimate D2E/DX2                !
 ! A38   A(6,7,30)             109.2936         estimate D2E/DX2                !
 ! A39   A(6,7,31)             109.2595         estimate D2E/DX2                !
 ! A40   A(8,7,30)             109.3026         estimate D2E/DX2                !
 ! A41   A(8,7,31)             109.2381         estimate D2E/DX2                !
 ! A42   A(30,7,31)            108.7737         estimate D2E/DX2                !
 ! A43   A(7,8,9)              111.1136         estimate D2E/DX2                !
 ! A44   A(7,8,32)             109.1916         estimate D2E/DX2                !
 ! A45   A(7,8,33)             109.2719         estimate D2E/DX2                !
 ! A46   A(9,8,32)             109.2213         estimate D2E/DX2                !
 ! A47   A(9,8,33)             109.2496         estimate D2E/DX2                !
 ! A48   A(32,8,33)            108.7556         estimate D2E/DX2                !
 ! A49   A(8,9,10)             110.9016         estimate D2E/DX2                !
 ! A50   A(8,9,34)             109.3044         estimate D2E/DX2                !
 ! A51   A(8,9,35)             109.2637         estimate D2E/DX2                !
 ! A52   A(10,9,34)            109.3241         estimate D2E/DX2                !
 ! A53   A(10,9,35)            109.2392         estimate D2E/DX2                !
 ! A54   A(34,9,35)            108.7746         estimate D2E/DX2                !
 ! A55   A(9,10,11)            111.1396         estimate D2E/DX2                !
 ! A56   A(9,10,36)            109.1804         estimate D2E/DX2                !
 ! A57   A(9,10,37)            109.2716         estimate D2E/DX2                !
 ! A58   A(11,10,36)           109.2085         estimate D2E/DX2                !
 ! A59   A(11,10,37)           109.2476         estimate D2E/DX2                !
 ! A60   A(36,10,37)           108.7554         estimate D2E/DX2                !
 ! A61   A(10,11,12)           110.8964         estimate D2E/DX2                !
 ! A62   A(10,11,38)           109.2998         estimate D2E/DX2                !
 ! A63   A(10,11,39)           109.2648         estimate D2E/DX2                !
 ! A64   A(12,11,38)           109.3317         estimate D2E/DX2                !
 ! A65   A(12,11,39)           109.2411         estimate D2E/DX2                !
 ! A66   A(38,11,39)           108.7739         estimate D2E/DX2                !
 ! A67   A(11,12,13)           111.1293         estimate D2E/DX2                !
 ! A68   A(11,12,40)           109.1895         estimate D2E/DX2                !
 ! A69   A(11,12,41)           109.2693         estimate D2E/DX2                !
 ! A70   A(13,12,40)           109.21           estimate D2E/DX2                !
 ! A71   A(13,12,41)           109.2493         estimate D2E/DX2                !
 ! A72   A(40,12,41)           108.7559         estimate D2E/DX2                !
 ! A73   A(12,13,14)           110.936          estimate D2E/DX2                !
 ! A74   A(12,13,42)           109.2812         estimate D2E/DX2                !
 ! A75   A(12,13,43)           109.2645         estimate D2E/DX2                !
 ! A76   A(14,13,42)           109.313          estimate D2E/DX2                !
 ! A77   A(14,13,43)           109.2405         estimate D2E/DX2                !
 ! A78   A(42,13,43)           108.7719         estimate D2E/DX2                !
 ! A79   A(13,14,15)           111.0587         estimate D2E/DX2                !
 ! A80   A(13,14,44)           109.231          estimate D2E/DX2                !
 ! A81   A(13,14,45)           109.2774         estimate D2E/DX2                !
 ! A82   A(15,14,44)           109.2258         estimate D2E/DX2                !
 ! A83   A(15,14,45)           109.2517         estimate D2E/DX2                !
 ! A84   A(44,14,45)           108.7601         estimate D2E/DX2                !
 ! A85   A(14,15,16)           111.1289         estimate D2E/DX2                !
 ! A86   A(14,15,46)           109.6451         estimate D2E/DX2                !
 ! A87   A(14,15,47)           109.6492         estimate D2E/DX2                !
 ! A88   A(16,15,46)           108.84           estimate D2E/DX2                !
 ! A89   A(16,15,47)           108.8069         estimate D2E/DX2                !
 ! A90   A(46,15,47)           108.7266         estimate D2E/DX2                !
 ! A91   A(15,16,48)           110.3455         estimate D2E/DX2                !
 ! A92   A(15,16,49)           109.5999         estimate D2E/DX2                !
 ! A93   A(15,16,50)           110.3317         estimate D2E/DX2                !
 ! A94   A(48,16,49)           108.6799         estimate D2E/DX2                !
 ! A95   A(48,16,50)           109.1771         estimate D2E/DX2                !
 ! A96   A(49,16,50)           108.667          estimate D2E/DX2                !
 ! D1    D(17,1,2,3)          -179.9973         estimate D2E/DX2                !
 ! D2    D(17,1,2,20)           59.1584         estimate D2E/DX2                !
 ! D3    D(17,1,2,21)          -59.1493         estimate D2E/DX2                !
 ! D4    D(18,1,2,3)            60.3805         estimate D2E/DX2                !
 ! D5    D(18,1,2,20)          -60.4638         estimate D2E/DX2                !
 ! D6    D(18,1,2,21)         -178.7715         estimate D2E/DX2                !
 ! D7    D(19,1,2,3)           -60.3671         estimate D2E/DX2                !
 ! D8    D(19,1,2,20)          178.7885         estimate D2E/DX2                !
 ! D9    D(19,1,2,21)           60.4809         estimate D2E/DX2                !
 ! D10   D(1,2,3,4)           -179.956          estimate D2E/DX2                !
 ! D11   D(1,2,3,22)            59.474          estimate D2E/DX2                !
 ! D12   D(1,2,3,23)           -59.4153         estimate D2E/DX2                !
 ! D13   D(20,2,3,4)           -59.6059         estimate D2E/DX2                !
 ! D14   D(20,2,3,22)          179.824          estimate D2E/DX2                !
 ! D15   D(20,2,3,23)           60.9348         estimate D2E/DX2                !
 ! D16   D(21,2,3,4)            59.6808         estimate D2E/DX2                !
 ! D17   D(21,2,3,22)          -60.8893         estimate D2E/DX2                !
 ! D18   D(21,2,3,23)         -179.7785         estimate D2E/DX2                !
 ! D19   D(2,3,4,5)            179.9872         estimate D2E/DX2                !
 ! D20   D(2,3,4,24)            59.4321         estimate D2E/DX2                !
 ! D21   D(2,3,4,25)           -59.4322         estimate D2E/DX2                !
 ! D22   D(22,3,4,5)           -59.449          estimate D2E/DX2                !
 ! D23   D(22,3,4,24)          179.9959         estimate D2E/DX2                !
 ! D24   D(22,3,4,25)           61.1316         estimate D2E/DX2                !
 ! D25   D(23,3,4,5)            59.448          estimate D2E/DX2                !
 ! D26   D(23,3,4,24)          -61.1071         estimate D2E/DX2                !
 ! D27   D(23,3,4,25)         -179.9714         estimate D2E/DX2                !
 ! D28   D(3,4,5,6)           -179.893          estimate D2E/DX2                !
 ! D29   D(3,4,5,26)            59.5257         estimate D2E/DX2                !
 ! D30   D(3,4,5,27)           -59.3738         estimate D2E/DX2                !
 ! D31   D(24,4,5,6)           -59.3491         estimate D2E/DX2                !
 ! D32   D(24,4,5,26)         -179.9304         estimate D2E/DX2                !
 ! D33   D(24,4,5,27)           61.1701         estimate D2E/DX2                !
 ! D34   D(25,4,5,6)            59.52           estimate D2E/DX2                !
 ! D35   D(25,4,5,26)          -61.0613         estimate D2E/DX2                !
 ! D36   D(25,4,5,27)         -179.9607         estimate D2E/DX2                !
 ! D37   D(4,5,6,7)            179.9579         estimate D2E/DX2                !
 ! D38   D(4,5,6,28)            59.4136         estimate D2E/DX2                !
 ! D39   D(4,5,6,29)           -59.4404         estimate D2E/DX2                !
 ! D40   D(26,5,6,7)           -59.4608         estimate D2E/DX2                !
 ! D41   D(26,5,6,28)          179.9949         estimate D2E/DX2                !
 ! D42   D(26,5,6,29)           61.1409         estimate D2E/DX2                !
 ! D43   D(27,5,6,7)            59.4286         estimate D2E/DX2                !
 ! D44   D(27,5,6,28)          -61.1157         estimate D2E/DX2                !
 ! D45   D(27,5,6,29)         -179.9697         estimate D2E/DX2                !
 ! D46   D(5,6,7,8)           -179.8173         estimate D2E/DX2                !
 ! D47   D(5,6,7,30)            59.5889         estimate D2E/DX2                !
 ! D48   D(5,6,7,31)           -59.326          estimate D2E/DX2                !
 ! D49   D(28,6,7,8)           -59.2876         estimate D2E/DX2                !
 ! D50   D(28,6,7,30)         -179.8813         estimate D2E/DX2                !
 ! D51   D(28,6,7,31)           61.2038         estimate D2E/DX2                !
 ! D52   D(29,6,7,8)            59.5698         estimate D2E/DX2                !
 ! D53   D(29,6,7,30)          -61.0239         estimate D2E/DX2                !
 ! D54   D(29,6,7,31)         -179.9388         estimate D2E/DX2                !
 ! D55   D(6,7,8,9)            179.9253         estimate D2E/DX2                !
 ! D56   D(6,7,8,32)            59.3891         estimate D2E/DX2                !
 ! D57   D(6,7,8,33)           -59.4508         estimate D2E/DX2                !
 ! D58   D(30,7,8,9)           -59.4863         estimate D2E/DX2                !
 ! D59   D(30,7,8,32)          179.9776         estimate D2E/DX2                !
 ! D60   D(30,7,8,33)           61.1376         estimate D2E/DX2                !
 ! D61   D(31,7,8,9)            59.4212         estimate D2E/DX2                !
 ! D62   D(31,7,8,32)          -61.1149         estimate D2E/DX2                !
 ! D63   D(31,7,8,33)         -179.9548         estimate D2E/DX2                !
 ! D64   D(7,8,9,10)          -179.7512         estimate D2E/DX2                !
 ! D65   D(7,8,9,34)            59.6454         estimate D2E/DX2                !
 ! D66   D(7,8,9,35)           -59.2796         estimate D2E/DX2                !
 ! D67   D(32,8,9,10)          -59.2326         estimate D2E/DX2                !
 ! D68   D(32,8,9,34)         -179.8361         estimate D2E/DX2                !
 ! D69   D(32,8,9,35)           61.2389         estimate D2E/DX2                !
 ! D70   D(33,8,9,10)           59.6117         estimate D2E/DX2                !
 ! D71   D(33,8,9,34)          -60.9917         estimate D2E/DX2                !
 ! D72   D(33,8,9,35)         -179.9167         estimate D2E/DX2                !
 ! D73   D(8,9,10,11)          179.9024         estimate D2E/DX2                !
 ! D74   D(8,9,10,36)           59.3731         estimate D2E/DX2                !
 ! D75   D(8,9,10,37)          -59.4598         estimate D2E/DX2                !
 ! D76   D(34,9,10,11)         -59.5058         estimate D2E/DX2                !
 ! D77   D(34,9,10,36)         179.9649         estimate D2E/DX2                !
 ! D78   D(34,9,10,37)          61.132          estimate D2E/DX2                !
 ! D79   D(35,9,10,11)          59.4163         estimate D2E/DX2                !
 ! D80   D(35,9,10,36)         -61.113          estimate D2E/DX2                !
 ! D81   D(35,9,10,37)        -179.946          estimate D2E/DX2                !
 ! D82   D(9,10,11,12)        -179.7238         estimate D2E/DX2                !
 ! D83   D(9,10,11,38)          59.6696         estimate D2E/DX2                !
 ! D84   D(9,10,11,39)         -59.2524         estimate D2E/DX2                !
 ! D85   D(36,10,11,12)        -59.2111         estimate D2E/DX2                !
 ! D86   D(36,10,11,38)       -179.8178         estimate D2E/DX2                !
 ! D87   D(36,10,11,39)         61.2602         estimate D2E/DX2                !
 ! D88   D(37,10,11,12)         59.6242         estimate D2E/DX2                !
 ! D89   D(37,10,11,38)        -60.9824         estimate D2E/DX2                !
 ! D90   D(37,10,11,39)       -179.9044         estimate D2E/DX2                !
 ! D91   D(10,11,12,13)        179.9099         estimate D2E/DX2                !
 ! D92   D(10,11,12,40)         59.3792         estimate D2E/DX2                !
 ! D93   D(10,11,12,41)        -59.4583         estimate D2E/DX2                !
 ! D94   D(38,11,12,13)        -59.5024         estimate D2E/DX2                !
 ! D95   D(38,11,12,40)        179.9669         estimate D2E/DX2                !
 ! D96   D(38,11,12,41)         61.1294         estimate D2E/DX2                !
 ! D97   D(39,11,12,13)         59.4245         estimate D2E/DX2                !
 ! D98   D(39,11,12,40)        -61.1062         estimate D2E/DX2                !
 ! D99   D(39,11,12,41)       -179.9437         estimate D2E/DX2                !
 ! D100  D(11,12,13,14)       -179.7669         estimate D2E/DX2                !
 ! D101  D(11,12,13,42)         59.6368         estimate D2E/DX2                !
 ! D102  D(11,12,13,43)        -59.2715         estimate D2E/DX2                !
 ! D103  D(40,12,13,14)        -59.2484         estimate D2E/DX2                !
 ! D104  D(40,12,13,42)       -179.8447         estimate D2E/DX2                !
 ! D105  D(40,12,13,43)         61.247          estimate D2E/DX2                !
 ! D106  D(41,12,13,14)         59.5895         estimate D2E/DX2                !
 ! D107  D(41,12,13,42)        -61.0068         estimate D2E/DX2                !
 ! D108  D(41,12,13,43)       -179.9151         estimate D2E/DX2                !
 ! D109  D(12,13,14,15)        179.9525         estimate D2E/DX2                !
 ! D110  D(12,13,14,44)         59.4198         estimate D2E/DX2                !
 ! D111  D(12,13,14,45)        -59.4522         estimate D2E/DX2                !
 ! D112  D(42,13,14,15)        -59.47           estimate D2E/DX2                !
 ! D113  D(42,13,14,44)        179.9972         estimate D2E/DX2                !
 ! D114  D(42,13,14,45)         61.1253         estimate D2E/DX2                !
 ! D115  D(43,13,14,15)         59.4429         estimate D2E/DX2                !
 ! D116  D(43,13,14,44)        -61.0898         estimate D2E/DX2                !
 ! D117  D(43,13,14,45)       -179.9617         estimate D2E/DX2                !
 ! D118  D(13,14,15,16)       -179.8779         estimate D2E/DX2                !
 ! D119  D(13,14,15,46)         59.7543         estimate D2E/DX2                !
 ! D120  D(13,14,15,47)        -59.5488         estimate D2E/DX2                !
 ! D121  D(44,14,15,16)        -59.3421         estimate D2E/DX2                !
 ! D122  D(44,14,15,46)       -179.7099         estimate D2E/DX2                !
 ! D123  D(44,14,15,47)         60.987          estimate D2E/DX2                !
 ! D124  D(45,14,15,16)         59.5116         estimate D2E/DX2                !
 ! D125  D(45,14,15,46)        -60.8562         estimate D2E/DX2                !
 ! D126  D(45,14,15,47)        179.8407         estimate D2E/DX2                !
 ! D127  D(14,15,16,48)        -60.3541         estimate D2E/DX2                !
 ! D128  D(14,15,16,49)        179.9998         estimate D2E/DX2                !
 ! D129  D(14,15,16,50)         60.3782         estimate D2E/DX2                !
 ! D130  D(46,15,16,48)         60.4888         estimate D2E/DX2                !
 ! D131  D(46,15,16,49)        -59.1573         estimate D2E/DX2                !
 ! D132  D(46,15,16,50)       -178.779          estimate D2E/DX2                !
 ! D133  D(47,15,16,48)        178.8196         estimate D2E/DX2                !
 ! D134  D(47,15,16,49)         59.1734         estimate D2E/DX2                !
 ! D135  D(47,15,16,50)        -60.4482         estimate D2E/DX2                !
 --------------------------------------------------------------------------------
 Trust Radius=3.00D-01 FncErr=1.00D-07 GrdErr=1.00D-06
 Number of steps in this run=    290 maximum allowed number of steps=    300.
 GradGradGradGradGradGradGradGradGradGradGradGradGradGradGradGradGradGrad

                          Input orientation:                          
 ---------------------------------------------------------------------
 Center     Atomic      Atomic             Coordinates (Angstroms)
 Number     Number       Type             X           Y           Z
 ---------------------------------------------------------------------
      1          6           0        0.130360   -1.205980   -2.477030
      2          6           0        0.533000   -2.552940   -1.883840
      3          6           0        1.789830   -2.421920   -1.015950
      4          6           0        2.191520   -3.777440   -0.422870
      5          6           0        3.448770   -3.647740    0.445220
      6          6           0        3.850810   -5.004360    1.035460
      7          6           0        5.108550   -4.877130    1.903140
      8          6           0        5.510420   -6.236070    2.488080
      9          6           0        6.769030   -6.113740    3.355130
     10          6           0        7.170040   -7.476230    3.932490
     11          6           0        8.429760   -7.360580    4.798730
     12          6           0        8.829650   -8.727110    5.367580
     13          6           0       10.090390   -8.617970    6.233110
     14          6           0       10.489560   -9.987690    6.794890
     15          6           0       11.750590   -9.882000    7.659860
     16          6           0       12.151030  -11.244880    8.217370
     17          1           0       -0.780730   -1.330710   -3.099360
     18          1           0        0.946060   -0.806530   -3.116690
     19          1           0       -0.088810   -0.477560   -1.667440
     20          1           0        0.724770   -3.267350   -2.714050
     21          1           0       -0.308090   -2.939400   -1.267710
     22          1           0        1.592040   -1.703700   -0.189690
     23          1           0        2.625730   -2.031210   -1.637500
     24          1           0        2.389070   -4.495130   -1.249660
     25          1           0        1.355540   -4.168560    0.198300
     26          1           0        3.251290   -2.931110    1.272880
     27          1           0        4.284550   -3.255960   -0.175740
     28          1           0        4.047940   -5.720160    0.206920
     29          1           0        3.015150   -5.396920    1.656120
     30          1           0        4.911750   -4.163160    2.733250
     31          1           0        5.943990   -4.483530    1.282860
     32          1           0        5.706370   -6.948650    1.656500
     33          1           0        4.675010   -6.630590    3.107840
     34          1           0        6.573630   -5.403690    4.188930
     35          1           0        7.604200   -5.717810    2.735970
     36          1           0        7.364230   -8.184490    3.096810
     37          1           0        6.334820   -7.873130    4.550990
     38          1           0        8.236160   -6.655140    5.636860
     39          1           0        9.264710   -6.962070    4.180950
     40          1           0        9.022080   -9.430750    4.527610
     41          1           0        7.994580   -9.126540    5.984650
     42          1           0        9.898340   -7.916720    7.075120
     43          1           0       10.925230   -8.217110    5.616680
     44          1           0       10.681230  -10.687840    5.951790
     45          1           0        9.654810  -10.389460    7.410910
     46          1           0       11.564920   -9.187520    8.508130
     47          1           0       12.590310   -9.483580    7.049540
     48          1           0       11.336660  -11.657760    8.850170
     49          1           0       13.065260  -11.139190    8.838570
     50          1           0       12.364160  -11.953440    7.388690
 ---------------------------------------------------------------------
                    Distance matrix (angstroms):
                    1          2          3          4          5
     1  C    0.000000
     2  C    1.525875   0.000000
     3  C    2.523312   1.532978   0.000000
     4  C    3.883344   2.526761   1.533145   0.000000
     5  C    5.051097   3.889064   2.527792   1.533323   0.000000
     6  C    6.372364   5.053675   3.889077   2.526916   1.533114
     7  C    7.579288   6.377988   5.055991   3.889564   2.528201
     8  C    8.882520   7.579831   6.377206   5.053077   3.888847
     9  C   10.108023   8.888992   7.584742   6.378494   5.056961
    10  C   11.399784  10.105384   8.887056   7.578646   6.377009
    11  C   12.637081  11.407408  10.113829   8.889299   7.586072
    12  C   13.920594  12.630830  11.404558  10.104124   8.887266
    13  C   15.165960  13.928861  12.642753  11.407232  10.115037
    14  C   16.443842  15.156812  13.926069  12.630152  11.405525
    15  C   17.693491  16.450886  15.170340  13.927383  12.642675
    16  C   18.964341  17.679448  16.445464  15.152830  13.923081
    17  H    1.110377   2.167307   3.484123   4.688748   5.985094
    18  H    1.110897   2.177266   2.781104   4.199303   5.198388
    19  H    1.110886   2.177310   2.781054   4.199770   5.198831
    20  H    2.158413   1.111938   2.175465   2.767861   4.188778
    21  H    2.158573   1.111935   2.175417   2.768414   4.189257
    22  H    2.759739   2.170926   1.112505   2.171209   2.762218
    23  H    2.759110   2.170807   1.112523   2.170987   2.761935
    24  H    4.174532   2.760305   2.170693   1.112514   2.171095
    25  H    4.175564   2.760816   2.171120   1.112515   2.171137
    26  H    5.174756   4.182941   2.762948   2.171395   1.112465
    27  H    5.172586   4.181623   2.761377   2.171126   1.112480
    28  H    6.552011   5.172752   4.180055   2.759908   2.170418
    29  H    6.555068   5.174998   4.182343   2.761029   2.171160
    30  H    7.665091   6.563824   5.180232   4.184438   2.764245
    31  H    7.660118   6.560029   5.176080   4.181998   2.761577
    32  H    9.008675   7.656372   6.555346   5.170544   4.178512
    33  H    9.015044   7.661615   6.560702   5.174370   4.182177
    34  H   10.177009   9.027432   7.672449   6.566299   5.182999
    35  H   10.168100   9.020029   7.664639   6.560519   5.176903
    36  H   11.493310  10.158097   9.010879   7.652919   6.553156
    37  H   11.503881  10.167230   9.020169   7.660346   6.560530
    38  H   12.697738  11.520749  10.185048   9.029904   7.675720
    39  H   12.684543  11.509338  10.173228   9.020368   7.665874
    40  H   13.991944  12.667890  11.496095  10.154985   9.009489
    41  H   14.006472  12.680715  11.509094  10.165859   9.020362
    42  H   15.221401  14.026500  12.704573  11.521656  10.187086
    43  H   15.205042  14.012104  12.689820  11.509323  10.174507
    44  H   16.500653  15.184211  13.997565  12.667482  11.497556
    45  H   16.517349  15.199041  14.012551  12.680206  11.510281
    46  H   17.751842  16.544303  15.232657  14.031834  12.711081
    47  H   17.734840  16.529300  15.217409  14.018979  12.698103
    48  H   19.055874  17.743613  16.546390  15.222428  14.036467
    49  H   19.850015  18.594389  17.327368  16.068847  14.800237
    50  H   19.039595  17.729229  16.531918  15.210196  14.024286
                    6          7          8          9         10
     6  C    0.000000
     7  C    1.533286   0.000000
     8  C    2.526167   1.533092   0.000000
     9  C    3.889422   2.528769   1.533245   0.000000
    10  C    5.051753   3.888872   2.525600   1.533145   0.000000
    11  C    6.378147   5.057905   3.889238   2.529153   1.533180
    12  C    7.577267   6.377404   5.051147   3.889192   2.525567
    13  C    8.888538   7.586913   6.377682   5.058198   3.889070
    14  C   10.103347   8.888324   7.577275   6.378227   5.051730
    15  C   11.405287  10.114605   8.887060   7.585936   6.376712
    16  C   12.626067  11.402380  10.100032   8.884588   7.574509
    17  H    7.214125   8.502101   9.739641  11.024368  12.264953
    18  H    6.580251   7.687314   9.040284  10.195975  11.528823
    19  H    6.581656   7.688811   9.043238  10.199152  11.533928
    20  H    5.181521   6.567143   7.666675   9.026071  10.170185
    21  H    5.183156   6.568796   7.670010   9.029547  10.175821
    22  H    4.182988   5.178459   6.562510   7.669122   9.023777
    23  H    4.181526   5.176851   6.559169   7.665529   9.017970
    24  H    2.760031   4.181106   5.171499   6.558051   7.655019
    25  H    2.761480   4.182539   5.175009   6.561644   7.661153
    26  H    2.171211   2.762904   4.183675   5.180675   6.564164
    27  H    2.170723   2.762048   4.180879   5.177508   6.558528
    28  H    1.112523   2.170888   2.758388   4.179768   5.168284
    29  H    1.112497   2.171065   2.760924   4.182354   5.173829
    30  H    2.171567   1.112459   2.171513   2.764233   4.185031
    31  H    2.171146   1.112487   2.170699   2.762712   4.180908
    32  H    2.758452   2.170119   1.112516   2.170637   2.756955
    33  H    2.760197   2.171147   1.112501   2.170992   2.760494
    34  H    4.185402   2.765603   2.171673   1.112463   2.171840
    35  H    4.181947   2.761995   2.171165   1.112488   2.170759
    36  H    5.167834   4.177508   2.757445   2.170023   1.112521
    37  H    5.172920   4.182208   2.759565   2.171192   1.112504
    38  H    6.567286   5.184971   4.185701   2.766202   2.171561
    39  H    6.560263   5.177747   4.181815   2.762257   2.171114
    40  H    7.650495   6.552787   5.166955   4.177739   2.757602
    41  H    7.658830   6.560898   5.172221   4.182501   2.759484
    42  H    9.029505   7.676625   6.566534   5.184751   4.184946
    43  H    9.019798   7.666786   6.559941   5.178105   4.181728
    44  H   10.155141   9.011697   7.651981   6.555177   5.169184
    45  H   10.165239   9.021629   7.659039   6.561925   5.173045
    46  H   11.525932  10.192648   9.033772   7.681282   6.571146
    47  H   11.515704  10.182414   9.026521   7.674098   6.566946
    48  H   12.703361  11.533756  10.189013   9.044051   7.683065
    49  H   13.543661  12.272849  11.020205   9.745038   8.499442
    50  H   12.693714  11.524292  10.182242   9.037543   7.679167
                   11         12         13         14         15
    11  C    0.000000
    12  C    1.533267   0.000000
    13  C    2.529065   1.533140   0.000000
    14  C    3.889619   2.526178   1.533319   0.000000
    15  C    5.056831   3.888471   2.527776   1.532821   0.000000
    16  C    6.373597   5.048964   3.883836   2.522788   1.525979
    17  H   13.548885  14.790376  16.074216  17.316435  18.598907
    18  H   12.712797  14.031016  15.233389  16.541206  17.754888
    19  H   12.718229  14.038715  15.241426  16.551602  17.765512
    20  H   11.513612  12.681120  14.014123  15.196514  16.520905
    21  H   11.519486  12.689482  14.022726  15.207668  16.532180
    22  H   10.180326  11.514970  12.699663  14.020510  15.221569
    23  H   10.174183  11.506296  12.690668  14.008947  15.209828
    24  H    9.015751  10.157686  11.502173  12.668896  14.001285
    25  H    9.022058  10.166816  11.511463  12.680993  14.013399
    26  H    7.672573   9.026532  10.184181  11.518701  12.702224
    27  H    7.666552   9.017750  10.175082  11.506868  12.690263
    28  H    6.555612   7.651073   9.012406  10.154193  11.497741
    29  H    6.561247   7.659864   9.021254  10.166068  11.509507
    30  H    5.183252   6.566527   7.675459   9.029620  10.185595
    31  H    5.178592   6.558959   7.667542   9.018895  10.174783
    32  H    4.178534   5.166228   6.553749   7.649688   9.009854
    33  H    4.182122   5.173283   6.560742   7.659860   9.019777
    34  H    2.765229   4.186163   5.184387   6.567998   7.674864
    35  H    2.763190   4.181266   5.179002   6.559879   7.666663
    36  H    2.170418   2.756499   4.178065   5.166722   6.553100
    37  H    2.170911   2.760485   4.181940   5.173811   6.559817
    38  H    1.112470   2.172050   2.765210   4.186255   5.182313
    39  H    1.112476   2.170883   2.763171   4.181784   5.177683
    40  H    2.170243   1.112514   2.170398   2.757578   4.178443
    41  H    2.171268   1.112502   2.170897   2.760977   4.181466
    42  H    2.765496   2.171295   1.112482   2.171862   2.763164
    43  H    2.762256   2.171084   1.112489   2.170931   2.761822
    44  H    4.179632   2.759368   2.170851   1.112549   2.170348
    45  H    4.183102   2.760343   2.171433   1.112523   2.170665
    46  H    5.189083   4.190076   2.770260   2.175284   1.111907
    47  H    5.184925   4.188532   2.768653   2.175345   1.111917
    48  H    6.582552   5.196368   4.200299   2.780447   2.177498
    49  H    7.217067   5.983836   4.689864   3.483793   2.167543
    50  H    6.578887   5.194887   4.198899   2.780449   2.177353
                   16         17         18         19         20
    16  C    0.000000
    17  H   19.839092   0.000000
    18  H   19.051809   1.804680   0.000000
    19  H   19.064583   1.804720   1.810940   0.000000
    20  H   17.711475   2.483056   2.503342   3.088727   0.000000
    21  H   17.725050   2.483186   3.088811   2.503702   1.807277
    22  H   16.528915   3.772975   3.128823   2.551945   3.093469
    23  H   16.514888   3.772493   2.551301   3.127851   2.510110
    24  H   15.181556   4.845882   4.378795   4.738702   2.534122
    25  H   15.196131   4.846814   4.739207   4.380709   3.113171
    26  H   14.019632   6.159135   5.394094   5.081501   4.732016
    27  H   14.005308   6.157207   5.078820   5.391749   4.372091
    28  H   12.662934   7.315382   6.694162   6.936194   5.058834
    29  H   12.677261   7.318289   6.937761   6.699308   5.373946
    30  H   11.516662   8.628235   7.824031   7.612839   6.928662
    31  H   11.503505   8.623571   7.606292   7.819638   6.685405
    32  H   10.150677   9.811316   9.119733   9.300951   7.580898
    33  H   10.163161   9.817492   9.304274   9.130009   7.798088
    34  H    9.025255  11.126318  10.304150  10.146523   9.296464
    35  H    9.014872  11.117768  10.134354  10.297215   9.112301
    36  H    7.648502  12.316948  11.585974  11.732121  10.100831
    37  H    7.657633  12.327294  11.737499  11.602860  10.269697
    38  H    6.561322  13.637280  12.805328  12.681499  11.731828
    39  H    6.554845  13.624463  12.662786  12.796127  11.581129
    40  H    5.166791  14.828230  14.072476  14.196710  12.620400
    41  H    5.171893  14.842516  14.203471  14.096118  12.761177
    42  H    4.178037  16.153579  15.315714  15.215670  14.198552
    43  H    4.175352  16.137576  15.191191  15.305820  14.069491
    44  H    2.757437  17.345193  16.572602  16.682213  15.142376
    45  H    2.759209  17.361660  16.688476  16.601215  15.263842
    46  H    2.158888  18.678286  17.836413  17.754297  16.688157
    47  H    2.158465  18.661569  17.726590  17.828467  16.575893
    48  H    1.110902  19.906541  19.207277  19.135265  17.797257
    49  H    1.110350  20.746853  19.913993  19.926770  18.647160
    50  H    1.110942  19.890443  19.104701  19.203796  17.691493
                   21         22         23         24         25
    21  H    0.000000
    22  H    2.509896   0.000000
    23  H    3.093356   1.808848   0.000000
    24  H    3.113727   3.090449   2.505460   0.000000
    25  H    2.535288   2.506392   3.090600   1.808707   0.000000
    26  H    4.373083   2.529576   3.109897   3.090759   2.505967
    27  H    4.731274   3.107944   2.527536   2.506330   3.090606
    28  H    5.374212   4.724478   4.362673   2.524713   3.107500
    29  H    5.062816   4.367165   4.725207   3.106245   2.527531
    30  H    6.689693   5.060928   5.373505   4.726277   4.367222
    31  H    6.926633   5.369854   5.055020   4.364774   4.725394
    32  H    7.797360   6.917054   6.672480   5.046782   5.365163
    33  H    7.589572   6.682264   6.918966   5.364095   5.054295
    34  H    9.121717   7.594635   7.804282   6.922015   6.684245
    35  H    9.292650   7.798630   7.583101   6.676659   6.919949
    36  H   10.267643   9.280081   9.095599   7.566730   7.786746
    37  H   10.115692   9.112073   9.283468   7.786358   7.580434
    38  H   11.596724  10.129648  10.284647   9.288609   9.116137
    39  H   11.726392  10.277296  10.111567   9.102293   9.285482
    40  H   12.758348  11.711777  11.561793  10.086328  10.257164
    41  H   12.641667  11.585057  11.716033  10.257044  10.106447
    42  H   14.090697  12.663874  12.784359  11.721705  11.589598
    43  H   14.192834  12.776810  12.640023  11.570038  11.718727
    44  H   15.261869  14.179066  14.050824  12.608349  12.750379
    45  H   15.168428  14.079056  14.182455  12.749101  12.633259
    46  H   16.600434  15.202565  15.298879  14.192576  14.088104
    47  H   16.684474  15.293624  15.175485  14.065086  14.191863
    48  H   17.719523  16.606023  16.689577  15.276426  15.184391
    49  H   18.660652  17.383116  17.369143  16.121320  16.135721
    50  H   17.798093  16.689146  16.575879  15.157503  15.280569
                   26         27         28         29         30
    26  H    0.000000
    27  H    1.808771   0.000000
    28  H    3.090262   2.504934   0.000000
    29  H    2.506562   3.090436   1.808679   0.000000
    30  H    2.531354   3.111047   3.090754   2.505886   0.000000
    31  H    3.108173   2.527486   2.506373   3.090584   1.808808
    32  H    4.723898   4.360577   2.522075   3.106530   3.090270
    33  H    4.368090   4.724668   3.104422   2.526770   2.506905
    34  H    5.065071   5.376149   4.726063   4.367832   2.533725
    35  H    5.371606   5.055575   4.363838   4.725296   3.109056
    36  H    6.916719   6.669664   5.042040   5.362894   4.724186
    37  H    6.684140   6.918370   5.360601   5.052930   4.369575
    38  H    7.600109   7.807430   6.920955   6.684935   5.068789
    39  H    7.801713   7.584062   6.674574   6.919643   5.373825
    40  H    9.281196   9.093609   7.561674   7.784629   6.918240
    41  H    9.114984   9.283234   7.782131   7.578981   6.686597
    42  H   10.134376  10.286510   9.285700   9.115550   7.603100
    43  H   10.281038  10.112555   9.099307   9.284873   7.804526
    44  H   11.715932  11.562741  10.083745  10.257456   9.285330
    45  H   11.589110  11.716816  10.253625  10.105847   9.118330
    46  H   12.673119  12.790496  11.723381  11.593846  10.141898
    47  H   12.787570  12.648066  11.573974  11.724908  10.290652
    48  H   14.104714  14.205265  12.770525  12.657014  11.613148
    49  H   14.863588  14.849376  13.608208  13.622260  12.345835
    50  H   14.207391  14.076465  12.632938  12.777101  11.743083
                   31         32         33         34         35
    31  H    0.000000
    32  H    2.504573   0.000000
    33  H    3.090425   1.808661   0.000000
    34  H    3.112617   3.090670   2.505753   0.000000
    35  H    2.528097   2.506388   3.090568   1.808822   0.000000
    36  H    4.359427   2.519979   3.105903   3.090408   2.504456
    37  H    4.724702   3.102851   2.526174   2.507240   3.090474
    38  H    5.378406   4.725384   4.367875   2.535081   3.113378
    39  H    5.056606   4.362890   4.725123   3.109747   2.528526
    40  H    6.669185   5.039645   5.362244   4.725127   4.359619
    41  H    6.918764   5.358357   5.052262   4.370735   4.725014
    42  H    7.808582   6.918903   6.684057   5.069429   5.378337
    43  H    7.585141   6.672969   6.919290   5.374963   5.057097
    44  H    9.095813   7.561765   7.786142   6.921148   6.671642
    45  H    9.284567   7.780912   7.579177   6.688253   6.919854
    46  H   10.292080   9.288702   9.119862   7.608274   7.813067
    47  H   10.120705   9.104910   9.291314   7.812108   7.592707
    48  H   11.739448  10.277391  10.130369   9.139311   9.305789
    49  H   12.332844  11.103874  11.115981   9.831397   9.821215
    50  H   11.588757  10.110989  10.285010   9.309561   9.120751
                   36         37         38         39         40
    36  H    0.000000
    37  H    1.808665   0.000000
    38  H    3.090474   2.505535   0.000000
    39  H    2.506291   3.090504   1.808810   0.000000
    40  H    2.519686   3.106138   3.090650   2.504680   0.000000
    41  H    3.102325   2.526108   2.507416   3.090549   1.808664
    42  H    4.724443   4.367128   2.534367   3.112726   3.090295
    43  H    4.362514   4.725027   3.109864   2.528591   2.506187
    44  H    5.041841   5.364337   4.726544   4.361624   2.522170
    45  H    5.359115   5.053058   4.370923   4.725656   3.103690
    46  H    6.923456   6.688836   5.073242   5.382200   4.729665
    47  H    6.680091   6.925854   5.380926   5.064231   4.369804
    48  H    7.806725   7.604260   6.705570   6.938595   5.385293
    49  H    8.613931   8.622605   7.326517   7.320242   6.152272
    50  H    7.591081   7.813732   6.941273   6.694024   5.071414
                   41         42         43         44         45
    41  H    0.000000
    42  H    2.505412   0.000000
    43  H    3.090497   1.808807   0.000000
    44  H    3.107543   3.090937   2.505263   0.000000
    45  H    2.526964   2.507290   3.090685   1.808756   0.000000
    46  H    4.372528   2.538885   3.116309   3.093015   2.509397
    47  H    4.730983   3.114869   2.535651   2.509957   3.093278
    48  H    5.078167   4.383486   4.739494   3.125850   2.551210
    49  H    6.156900   4.850098   4.847562   3.771050   3.772463
    50  H    5.390354   4.740644   4.378436   2.549251   3.128435
                   46         47         48         49         50
    46  H    0.000000
    47  H    1.807363   0.000000
    48  H    2.504232   3.088845   0.000000
    49  H    2.483793   2.483395   1.804746   0.000000
    50  H    3.089052   2.503273   1.810830   1.804632   0.000000
 Stoichiometry    C16H34
 Framework group  C1[X(C16H34)]
 Deg. of freedom   144
 Full point group                 C1      NOp   1
 Largest Abelian subgroup         C1      NOp   1
 Largest concise Abelian subgroup C1      NOp   1
                         Standard orientation:                         
 ---------------------------------------------------------------------
 Center     Atomic      Atomic             Coordinates (Angstroms)
 Number     Number       Type             X           Y           Z
 ---------------------------------------------------------------------
      1          6           0       -9.479057    0.311277   -0.028318
      2          6           0       -8.205713   -0.529366   -0.013893
      3          6           0       -6.956246    0.358806   -0.011878
      4          6           0       -5.679312   -0.489600    0.001527
      5          6           0       -4.428798    0.397695    0.003235
      6          6           0       -3.152707   -0.451960    0.013971
      7          6           0       -1.900875    0.433411    0.014645
      8          6           0       -0.626762   -0.419214    0.020823
      9          6           0        0.627724    0.462321    0.019651
     10          6           0        1.898722   -0.395056    0.019622
     11          6           0        3.156803    0.481221    0.016015
     12          6           0        4.424232   -0.381614    0.009098
     13          6           0        5.685822    0.489520    0.003218
     14          6           0        6.950338   -0.377604   -0.009515
     15          6           0        8.213520    0.490649   -0.016604
     16          6           0        9.473014   -0.370769   -0.032311
     17          1           0      -10.366072   -0.356660   -0.029434
     18          1           0       -9.511533    0.947178   -0.938630
     19          1           0       -9.523529    0.960211    0.872224
     20          1           0       -8.197869   -1.183631   -0.912938
     21          1           0       -8.209706   -1.170964    0.894256
     22          1           0       -6.972172    1.012622    0.888088
     23          1           0       -6.960852    1.000489   -0.920684
     24          1           0       -5.664110   -1.143176   -0.898636
     25          1           0       -5.674770   -1.131736    0.910003
     26          1           0       -4.442929    1.050557    0.903874
     27          1           0       -4.433680    1.040329   -0.904845
     28          1           0       -3.139721   -1.104443   -0.887032
     29          1           0       -3.147529   -1.095248    0.921607
     30          1           0       -1.911837    1.084775    0.916404
     31          1           0       -1.906499    1.077538   -0.892381
     32          1           0       -0.617887   -1.070076   -0.881393
     33          1           0       -0.620956   -1.064197    0.927256
     34          1           0        0.621737    1.111692    0.922898
     35          1           0        0.621400    1.108485   -0.885921
     36          1           0        1.901954   -1.043835   -0.884136
     37          1           0        1.905121   -1.042183    0.924525
     38          1           0        3.156762    1.128322    0.920918
     39          1           0        3.149836    1.129704   -0.887879
     40          1           0        4.421562   -1.028088   -0.896304
     41          1           0        4.431175   -1.031062    0.912332
     42          1           0        5.691097    1.134505    0.909629
     43          1           0        5.678381    1.140177   -0.899125
     44          1           0        6.943645   -1.022033   -0.916395
     45          1           0        6.958059   -1.029060    0.892291
     46          1           0        8.229907    1.134149    0.890026
     47          1           0        8.213965    1.142723   -0.917247
     48          1           0        9.509145   -1.018595    0.869420
     49          1           0       10.370935    0.282371   -0.037174
     50          1           0        9.492741   -1.009143   -0.941311
 ---------------------------------------------------------------------
 Rotational constants (GHZ):      5.0657605      0.0643528      0.0639709
 Standard basis: STO-3G (5D, 7F)
 There are   114 symmetry adapted cartesian basis functions of A   symmetry.
 There are   114 symmetry adapted basis functions of A   symmetry.
   114 basis functions,   342 primitive gaussians,   114 cartesian basis functions
    65 alpha electrons       65 beta electrons
       nuclear repulsion energy      1007.2121005526 Hartrees.
 NAtoms=   50 NActive=   50 NUniq=   50 SFac= 1.00D+00 NAtFMM=   60 NAOKFM=F Big=F
 Integral buffers will be    131072 words long.
 Raffenetti 2 integral format.
 Two-electron integral symmetry is turned on.
 One-electron integrals computed using PRISM.
 NBasis=   114 RedAO= T EigKep=  2.02D-01  NBF=   114
 NBsUse=   114 1.00D-06 EigRej= -1.00D+00 NBFU=   114
 ExpMin= 1.69D-01 ExpMax= 7.16D+01 ExpMxC= 7.16D+01 IAcc=1 IRadAn=         1 AccDes= 0.00D+00
 Harris functional with IExCor=  402 and IRadAn=       1 diagonalized for initial guess.
 HarFok:  IExCor=  402 AccDes= 0.00D+00 IRadAn=         1 IDoV= 1 UseB2=F ITyADJ=14
 ICtDFT=  3500011 ScaDFX=  1.000000  1.000000  1.000000  1.000000
 FoFCou: FMM=F IPFlag=           0 FMFlag=      100000 FMFlg1=           0
         NFxFlg=           0 DoJE=T BraDBF=F KetDBF=T FulRan=T
         wScrn=  0.000000 ICntrl=     500 IOpCl=  0 I1Cent=   200000004 NGrid=           0
         NMat0=    1 NMatS0=      1 NMatT0=    0 NMatD0=    1 NMtDS0=    0 NMtDT0=    0
 Petite list used in FoFCou.
 Keep R1 ints in memory in canonical form, NReq=22487574.
 Requested convergence on RMS density matrix=1.00D-08 within 128 cycles.
 Requested convergence on MAX density matrix=1.00D-06.
 Requested convergence on             energy=1.00D-06.
 No special actions if energy rises.
 Integral accuracy reduced to 1.0D-05 until final iterations.
 Initial convergence to 1.0D-05 achieved.  Increase integral accuracy.
 SCF Done:  E(RB3LYP) =  -622.746656974     A.U. after   10 cycles
            NFock= 10  Conv=0.39D-08     -V/T= 2.0179

 **********************************************************************

            Population analysis using the SCF density.

 **********************************************************************

 Orbital symmetries:
       Occupied  (A) (A) (A) (A) (A) (A) (A) (A) (A) (A) (A) (A)
                 (A) (A) (A) (A) (A) (A) (A) (A) (A) (A) (A) (A)
                 (A) (A) (A) (A) (A) (A) (A) (A) (A) (A) (A) (A)
                 (A) (A) (A) (A) (A) (A) (A) (A) (A) (A) (A) (A)
                 (A) (A) (A) (A) (A) (A) (A) (A) (A) (A) (A) (A)
                 (A) (A) (A) (A) (A)
       Virtual   (A) (A) (A) (A) (A) (A) (A) (A) (A) (A) (A) (A)
                 (A) (A) (A) (A) (A) (A) (A) (A) (A) (A) (A) (A)
                 (A) (A) (A) (A) (A) (A) (A) (A) (A) (A) (A) (A)
                 (A) (A) (A) (A) (A) (A) (A) (A) (A) (A) (A) (A)
                 (A)
 The electronic state is 1-A.
 Alpha  occ. eigenvalues --  -10.00550 -10.00550 -10.00280 -10.00280 -10.00225
 Alpha  occ. eigenvalues --  -10.00220 -10.00201 -10.00182 -10.00159 -10.00135
 Alpha  occ. eigenvalues --  -10.00108 -10.00082 -10.00055 -10.00029  -9.99826
 Alpha  occ. eigenvalues --   -9.99826  -0.77529  -0.76880  -0.75757  -0.74179
 Alpha  occ. eigenvalues --   -0.72168  -0.69754  -0.66977  -0.63901  -0.60651
 Alpha  occ. eigenvalues --   -0.57460  -0.54779  -0.54025  -0.53608  -0.53325
 Alpha  occ. eigenvalues --   -0.52760  -0.52615  -0.45463  -0.44836  -0.43773
 Alpha  occ. eigenvalues --   -0.42322  -0.40548  -0.39319  -0.38779  -0.38538
 Alpha  occ. eigenvalues --   -0.38281  -0.36986  -0.36408  -0.35969  -0.35078
 Alpha  occ. eigenvalues --   -0.34295  -0.33136  -0.32475  -0.32356  -0.31357
 Alpha  occ. eigenvalues --   -0.30735  -0.30000  -0.29514  -0.28953  -0.28726
 Alpha  occ. eigenvalues --   -0.28647  -0.28318  -0.28253  -0.28208  -0.28108
 Alpha  occ. eigenvalues --   -0.28101  -0.27880  -0.27663  -0.25214  -0.22762
 Alpha virt. eigenvalues --    0.32178   0.34422   0.34478   0.35171   0.36399
 Alpha virt. eigenvalues --    0.37663   0.38006   0.39615   0.39642   0.39872
 Alpha virt. eigenvalues --    0.39955   0.40120   0.41045   0.41070   0.41863
 Alpha virt. eigenvalues --    0.42505   0.43625   0.43851   0.44650   0.45370
 Alpha virt. eigenvalues --    0.45754   0.45920   0.46471   0.46868   0.47524
 Alpha virt. eigenvalues --    0.47686   0.48115   0.48348   0.48695   0.48966
 Alpha virt. eigenvalues --    0.49187   0.49252   0.49837   0.50130   0.50796
 Alpha virt. eigenvalues --    0.51013   0.51291   0.51947   0.52294   0.52362
 Alpha virt. eigenvalues --    0.52552   0.52982   0.53056   0.53609   0.53633
 Alpha virt. eigenvalues --    0.53845   0.55159   0.56199   0.56888
          Condensed to atoms (all electrons):
               1          2          3          4          5          6
     1  C    4.785022   0.363921  -0.023797   0.000828  -0.000006   0.000000
     2  C    0.363921   4.774606   0.363793  -0.022912   0.000808  -0.000006
     3  C   -0.023797   0.363793   4.785951   0.362987  -0.022812   0.000807
     4  C    0.000828  -0.022912   0.362987   4.786842   0.362980  -0.022853
     5  C   -0.000006   0.000808  -0.022812   0.362980   4.786939   0.362982
     6  C    0.000000  -0.000006   0.000807  -0.022853   0.362982   4.787038
     7  C    0.000000   0.000000  -0.000006   0.000806  -0.022786   0.362962
     8  C    0.000000   0.000000   0.000000  -0.000006   0.000807  -0.022895
     9  C    0.000000   0.000000   0.000000   0.000000  -0.000006   0.000806
    10  C    0.000000   0.000000   0.000000   0.000000   0.000000  -0.000006
    11  C    0.000000   0.000000   0.000000   0.000000   0.000000   0.000000
    12  C    0.000000   0.000000   0.000000   0.000000   0.000000   0.000000
    13  C    0.000000   0.000000   0.000000   0.000000   0.000000   0.000000
    14  C    0.000000   0.000000   0.000000   0.000000   0.000000   0.000000
    15  C    0.000000   0.000000   0.000000   0.000000   0.000000   0.000000
    16  C    0.000000   0.000000   0.000000   0.000000   0.000000   0.000000
    17  H    0.377607  -0.020380   0.001404  -0.000019   0.000000   0.000000
    18  H    0.378198  -0.020788  -0.002480   0.000011   0.000000   0.000000
    19  H    0.378200  -0.020787  -0.002479   0.000011   0.000000   0.000000
    20  H   -0.022455   0.377859  -0.021832  -0.002404   0.000010   0.000000
    21  H   -0.022446   0.377858  -0.021836  -0.002397   0.000010   0.000000
    22  H   -0.002406  -0.022003   0.377280  -0.021967  -0.002435   0.000010
    23  H   -0.002414  -0.022009   0.377277  -0.021976  -0.002441   0.000010
    24  H    0.000010  -0.002447  -0.022027   0.377299  -0.021990  -0.002459
    25  H    0.000010  -0.002442  -0.022004   0.377296  -0.021991  -0.002439
    26  H    0.000000   0.000010  -0.002428  -0.021994   0.377290  -0.021993
    27  H    0.000000   0.000010  -0.002448  -0.022007   0.377289  -0.022014
    28  H    0.000000   0.000000   0.000010  -0.002459  -0.022049   0.377290
    29  H    0.000000   0.000000   0.000010  -0.002445  -0.022010   0.377293
    30  H    0.000000   0.000000   0.000000   0.000010  -0.002415  -0.021980
    31  H    0.000000   0.000000   0.000000   0.000010  -0.002448  -0.021999
    32  H    0.000000   0.000000   0.000000   0.000000   0.000010  -0.002473
    33  H    0.000000   0.000000   0.000000   0.000000   0.000010  -0.002450
    34  H    0.000000   0.000000   0.000000   0.000000   0.000000   0.000010
    35  H    0.000000   0.000000   0.000000   0.000000   0.000000   0.000010
    36  H    0.000000   0.000000   0.000000   0.000000   0.000000   0.000000
    37  H    0.000000   0.000000   0.000000   0.000000   0.000000   0.000000
    38  H    0.000000   0.000000   0.000000   0.000000   0.000000   0.000000
    39  H    0.000000   0.000000   0.000000   0.000000   0.000000   0.000000
    40  H    0.000000   0.000000   0.000000   0.000000   0.000000   0.000000
    41  H    0.000000   0.000000   0.000000   0.000000   0.000000   0.000000
    42  H    0.000000   0.000000   0.000000   0.000000   0.000000   0.000000
    43  H    0.000000   0.000000   0.000000   0.000000   0.000000   0.000000
    44  H    0.000000   0.000000   0.000000   0.000000   0.000000   0.000000
    45  H    0.000000   0.000000   0.000000   0.000000   0.000000   0.000000
    46  H    0.000000   0.000000   0.000000   0.000000   0.000000   0.000000
    47  H    0.000000   0.000000   0.000000   0.000000   0.000000   0.000000
    48  H    0.000000   0.000000   0.000000   0.000000   0.000000   0.000000
    49  H    0.000000   0.000000   0.000000   0.000000   0.000000   0.000000
    50  H    0.000000   0.000000   0.000000   0.000000   0.000000   0.000000
               7          8          9         10         11         12
     1  C    0.000000   0.000000   0.000000   0.000000   0.000000   0.000000
     2  C    0.000000   0.000000   0.000000   0.000000   0.000000   0.000000
     3  C   -0.000006   0.000000   0.000000   0.000000   0.000000   0.000000
     4  C    0.000806  -0.000006   0.000000   0.000000   0.000000   0.000000
     5  C   -0.022786   0.000807  -0.000006   0.000000   0.000000   0.000000
     6  C    0.362962  -0.022895   0.000806  -0.000006   0.000000   0.000000
     7  C    4.786968   0.362974  -0.022756   0.000807  -0.000006   0.000000
     8  C    0.362974   4.787091   0.362964  -0.022927   0.000807  -0.000006
     9  C   -0.022756   0.362964   4.786953   0.362971  -0.022735   0.000807
    10  C    0.000807  -0.022927   0.362971   4.787100   0.362970  -0.022928
    11  C   -0.000006   0.000807  -0.022735   0.362970   4.786924   0.362969
    12  C    0.000000  -0.000006   0.000807  -0.022928   0.362969   4.787036
    13  C    0.000000   0.000000  -0.000006   0.000807  -0.022739   0.362995
    14  C    0.000000   0.000000   0.000000  -0.000006   0.000806  -0.022899
    15  C    0.000000   0.000000   0.000000   0.000000  -0.000006   0.000808
    16  C    0.000000   0.000000   0.000000   0.000000   0.000000  -0.000006
    17  H    0.000000   0.000000   0.000000   0.000000   0.000000   0.000000
    18  H    0.000000   0.000000   0.000000   0.000000   0.000000   0.000000
    19  H    0.000000   0.000000   0.000000   0.000000   0.000000   0.000000
    20  H    0.000000   0.000000   0.000000   0.000000   0.000000   0.000000
    21  H    0.000000   0.000000   0.000000   0.000000   0.000000   0.000000
    22  H    0.000000   0.000000   0.000000   0.000000   0.000000   0.000000
    23  H    0.000000   0.000000   0.000000   0.000000   0.000000   0.000000
    24  H    0.000010   0.000000   0.000000   0.000000   0.000000   0.000000
    25  H    0.000010   0.000000   0.000000   0.000000   0.000000   0.000000
    26  H   -0.002428   0.000010   0.000000   0.000000   0.000000   0.000000
    27  H   -0.002443   0.000010   0.000000   0.000000   0.000000   0.000000
    28  H   -0.022014  -0.002475   0.000010   0.000000   0.000000   0.000000
    29  H   -0.022010  -0.002441   0.000010   0.000000   0.000000   0.000000
    30  H    0.377289  -0.021981  -0.002415   0.000010   0.000000   0.000000
    31  H    0.377286  -0.022018  -0.002439   0.000010   0.000000   0.000000
    32  H   -0.022064   0.377297  -0.022032  -0.002489   0.000011   0.000000
    33  H   -0.022011   0.377296  -0.022020  -0.002443   0.000010   0.000000
    34  H   -0.002401  -0.021971   0.377284  -0.021964  -0.002406   0.000010
    35  H   -0.002447  -0.021992   0.377282  -0.022015  -0.002436   0.000010
    36  H    0.000010  -0.002483  -0.022067   0.377297  -0.022048  -0.002494
    37  H    0.000010  -0.002453  -0.022009   0.377299  -0.022029  -0.002442
    38  H    0.000000   0.000009  -0.002395  -0.021974   0.377282  -0.021954
    39  H    0.000000   0.000010  -0.002446  -0.021991   0.377283  -0.022011
    40  H    0.000000   0.000000   0.000010  -0.002482  -0.022048   0.377295
    41  H    0.000000   0.000000   0.000010  -0.002453  -0.022000   0.377296
    42  H    0.000000   0.000000   0.000000   0.000010  -0.002403  -0.021978
    43  H    0.000000   0.000000   0.000000   0.000010  -0.002446  -0.021982
    44  H    0.000000   0.000000   0.000000   0.000000   0.000010  -0.002465
    45  H    0.000000   0.000000   0.000000   0.000000   0.000010  -0.002447
    46  H    0.000000   0.000000   0.000000   0.000000   0.000000   0.000009
    47  H    0.000000   0.000000   0.000000   0.000000   0.000000   0.000010
    48  H    0.000000   0.000000   0.000000   0.000000   0.000000   0.000000
    49  H    0.000000   0.000000   0.000000   0.000000   0.000000   0.000000
    50  H    0.000000   0.000000   0.000000   0.000000   0.000000   0.000000
              13         14         15         16         17         18
     1  C    0.000000   0.000000   0.000000   0.000000   0.377607   0.378198
     2  C    0.000000   0.000000   0.000000   0.000000  -0.020380  -0.020788
     3  C    0.000000   0.000000   0.000000   0.000000   0.001404  -0.002480
     4  C    0.000000   0.000000   0.000000   0.000000  -0.000019   0.000011
     5  C    0.000000   0.000000   0.000000   0.000000   0.000000   0.000000
     6  C    0.000000   0.000000   0.000000   0.000000   0.000000   0.000000
     7  C    0.000000   0.000000   0.000000   0.000000   0.000000   0.000000
     8  C    0.000000   0.000000   0.000000   0.000000   0.000000   0.000000
     9  C   -0.000006   0.000000   0.000000   0.000000   0.000000   0.000000
    10  C    0.000807  -0.000006   0.000000   0.000000   0.000000   0.000000
    11  C   -0.022739   0.000806  -0.000006   0.000000   0.000000   0.000000
    12  C    0.362995  -0.022899   0.000808  -0.000006   0.000000   0.000000
    13  C    4.786766   0.362974  -0.022858   0.000828   0.000000   0.000000
    14  C    0.362974   4.786005   0.363805  -0.023824   0.000000   0.000000
    15  C   -0.022858   0.363805   4.774567   0.363918   0.000000   0.000000
    16  C    0.000828  -0.023824   0.363918   4.785044   0.000000   0.000000
    17  H    0.000000   0.000000   0.000000   0.000000   0.618695  -0.020221
    18  H    0.000000   0.000000   0.000000   0.000000  -0.020221   0.617830
    19  H    0.000000   0.000000   0.000000   0.000000  -0.020219  -0.020181
    20  H    0.000000   0.000000   0.000000   0.000000  -0.002427  -0.002500
    21  H    0.000000   0.000000   0.000000   0.000000  -0.002427   0.001972
    22  H    0.000000   0.000000   0.000000   0.000000   0.000013  -0.000019
    23  H    0.000000   0.000000   0.000000   0.000000   0.000014   0.000607
    24  H    0.000000   0.000000   0.000000   0.000000   0.000000   0.000002
    25  H    0.000000   0.000000   0.000000   0.000000   0.000000  -0.000001
    26  H    0.000000   0.000000   0.000000   0.000000   0.000000   0.000000
    27  H    0.000000   0.000000   0.000000   0.000000   0.000000   0.000000
    28  H    0.000000   0.000000   0.000000   0.000000   0.000000   0.000000
    29  H    0.000000   0.000000   0.000000   0.000000   0.000000   0.000000
    30  H    0.000000   0.000000   0.000000   0.000000   0.000000   0.000000
    31  H    0.000000   0.000000   0.000000   0.000000   0.000000   0.000000
    32  H    0.000000   0.000000   0.000000   0.000000   0.000000   0.000000
    33  H    0.000000   0.000000   0.000000   0.000000   0.000000   0.000000
    34  H    0.000000   0.000000   0.000000   0.000000   0.000000   0.000000
    35  H    0.000000   0.000000   0.000000   0.000000   0.000000   0.000000
    36  H    0.000011   0.000000   0.000000   0.000000   0.000000   0.000000
    37  H    0.000010   0.000000   0.000000   0.000000   0.000000   0.000000
    38  H   -0.002407   0.000010   0.000000   0.000000   0.000000   0.000000
    39  H   -0.002435   0.000010   0.000000   0.000000   0.000000   0.000000
    40  H   -0.022053  -0.002484   0.000010   0.000000   0.000000   0.000000
    41  H   -0.022031  -0.002441   0.000010   0.000000   0.000000   0.000000
    42  H    0.377295  -0.021958  -0.002420   0.000010   0.000000   0.000000
    43  H    0.377295  -0.022006  -0.002436   0.000010   0.000000   0.000000
    44  H   -0.021986   0.377277  -0.022038  -0.002431   0.000000   0.000000
    45  H   -0.021961   0.377281  -0.022022  -0.002409   0.000000   0.000000
    46  H   -0.002380  -0.021842   0.377862  -0.022425   0.000000   0.000000
    47  H   -0.002401  -0.021835   0.377863  -0.022450   0.000000   0.000000
    48  H    0.000011  -0.002482  -0.020779   0.378193   0.000000   0.000000
    49  H   -0.000019   0.001405  -0.020372   0.377609   0.000000   0.000000
    50  H    0.000011  -0.002486  -0.020783   0.378185   0.000000   0.000000
              19         20         21         22         23         24
     1  C    0.378200  -0.022455  -0.022446  -0.002406  -0.002414   0.000010
     2  C   -0.020787   0.377859   0.377858  -0.022003  -0.022009  -0.002447
     3  C   -0.002479  -0.021832  -0.021836   0.377280   0.377277  -0.022027
     4  C    0.000011  -0.002404  -0.002397  -0.021967  -0.021976   0.377299
     5  C    0.000000   0.000010   0.000010  -0.002435  -0.002441  -0.021990
     6  C    0.000000   0.000000   0.000000   0.000010   0.000010  -0.002459
     7  C    0.000000   0.000000   0.000000   0.000000   0.000000   0.000010
     8  C    0.000000   0.000000   0.000000   0.000000   0.000000   0.000000
     9  C    0.000000   0.000000   0.000000   0.000000   0.000000   0.000000
    10  C    0.000000   0.000000   0.000000   0.000000   0.000000   0.000000
    11  C    0.000000   0.000000   0.000000   0.000000   0.000000   0.000000
    12  C    0.000000   0.000000   0.000000   0.000000   0.000000   0.000000
    13  C    0.000000   0.000000   0.000000   0.000000   0.000000   0.000000
    14  C    0.000000   0.000000   0.000000   0.000000   0.000000   0.000000
    15  C    0.000000   0.000000   0.000000   0.000000   0.000000   0.000000
    16  C    0.000000   0.000000   0.000000   0.000000   0.000000   0.000000
    17  H   -0.020219  -0.002427  -0.002427   0.000013   0.000014   0.000000
    18  H   -0.020181  -0.002500   0.001972  -0.000019   0.000607   0.000002
    19  H    0.617817   0.001972  -0.002497   0.000606  -0.000019  -0.000001
    20  H    0.001972   0.628167  -0.021354   0.001912  -0.002407   0.000566
    21  H   -0.002497  -0.021354   0.628153  -0.002411   0.001913  -0.000004
    22  H    0.000606   0.001912  -0.002411   0.629346  -0.021432   0.001922
    23  H   -0.000019  -0.002407   0.001913  -0.021432   0.629387  -0.002440
    24  H   -0.000001   0.000566  -0.000004   0.001922  -0.002440   0.629879
    25  H    0.000002  -0.000004   0.000565  -0.002433   0.001922  -0.021459
    26  H    0.000000  -0.000001   0.000002   0.000570  -0.000005   0.001921
    27  H    0.000000   0.000002  -0.000001  -0.000005   0.000572  -0.002428
    28  H    0.000000   0.000000   0.000000  -0.000001   0.000003   0.000573
    29  H    0.000000   0.000000   0.000000   0.000002  -0.000001  -0.000005
    30  H    0.000000   0.000000   0.000000   0.000000   0.000000  -0.000001
    31  H    0.000000   0.000000   0.000000   0.000000   0.000000   0.000002
    32  H    0.000000   0.000000   0.000000   0.000000   0.000000   0.000000
    33  H    0.000000   0.000000   0.000000   0.000000   0.000000   0.000000
    34  H    0.000000   0.000000   0.000000   0.000000   0.000000   0.000000
    35  H    0.000000   0.000000   0.000000   0.000000   0.000000   0.000000
    36  H    0.000000   0.000000   0.000000   0.000000   0.000000   0.000000
    37  H    0.000000   0.000000   0.000000   0.000000   0.000000   0.000000
    38  H    0.000000   0.000000   0.000000   0.000000   0.000000   0.000000
    39  H    0.000000   0.000000   0.000000   0.000000   0.000000   0.000000
    40  H    0.000000   0.000000   0.000000   0.000000   0.000000   0.000000
    41  H    0.000000   0.000000   0.000000   0.000000   0.000000   0.000000
    42  H    0.000000   0.000000   0.000000   0.000000   0.000000   0.000000
    43  H    0.000000   0.000000   0.000000   0.000000   0.000000   0.000000
    44  H    0.000000   0.000000   0.000000   0.000000   0.000000   0.000000
    45  H    0.000000   0.000000   0.000000   0.000000   0.000000   0.000000
    46  H    0.000000   0.000000   0.000000   0.000000   0.000000   0.000000
    47  H    0.000000   0.000000   0.000000   0.000000   0.000000   0.000000
    48  H    0.000000   0.000000   0.000000   0.000000   0.000000   0.000000
    49  H    0.000000   0.000000   0.000000   0.000000   0.000000   0.000000
    50  H    0.000000   0.000000   0.000000   0.000000   0.000000   0.000000
              25         26         27         28         29         30
     1  C    0.000010   0.000000   0.000000   0.000000   0.000000   0.000000
     2  C   -0.002442   0.000010   0.000010   0.000000   0.000000   0.000000
     3  C   -0.022004  -0.002428  -0.002448   0.000010   0.000010   0.000000
     4  C    0.377296  -0.021994  -0.022007  -0.002459  -0.002445   0.000010
     5  C   -0.021991   0.377290   0.377289  -0.022049  -0.022010  -0.002415
     6  C   -0.002439  -0.021993  -0.022014   0.377290   0.377293  -0.021980
     7  C    0.000010  -0.002428  -0.002443  -0.022014  -0.022010   0.377289
     8  C    0.000000   0.000010   0.000010  -0.002475  -0.002441  -0.021981
     9  C    0.000000   0.000000   0.000000   0.000010   0.000010  -0.002415
    10  C    0.000000   0.000000   0.000000   0.000000   0.000000   0.000010
    11  C    0.000000   0.000000   0.000000   0.000000   0.000000   0.000000
    12  C    0.000000   0.000000   0.000000   0.000000   0.000000   0.000000
    13  C    0.000000   0.000000   0.000000   0.000000   0.000000   0.000000
    14  C    0.000000   0.000000   0.000000   0.000000   0.000000   0.000000
    15  C    0.000000   0.000000   0.000000   0.000000   0.000000   0.000000
    16  C    0.000000   0.000000   0.000000   0.000000   0.000000   0.000000
    17  H    0.000000   0.000000   0.000000   0.000000   0.000000   0.000000
    18  H   -0.000001   0.000000   0.000000   0.000000   0.000000   0.000000
    19  H    0.000002   0.000000   0.000000   0.000000   0.000000   0.000000
    20  H   -0.000004  -0.000001   0.000002   0.000000   0.000000   0.000000
    21  H    0.000565   0.000002  -0.000001   0.000000   0.000000   0.000000
    22  H   -0.002433   0.000570  -0.000005  -0.000001   0.000002   0.000000
    23  H    0.001922  -0.000005   0.000572   0.000003  -0.000001   0.000000
    24  H   -0.021459   0.001921  -0.002428   0.000573  -0.000005  -0.000001
    25  H    0.629834  -0.002438   0.001922  -0.000004   0.000569   0.000002
    26  H   -0.002438   0.629946  -0.021467   0.001924  -0.002432   0.000567
    27  H    0.001922  -0.021467   0.630021  -0.002443   0.001923  -0.000004
    28  H   -0.000004   0.001924  -0.002443   0.630142  -0.021462   0.001921
    29  H    0.000569  -0.002432   0.001923  -0.021462   0.630045  -0.002442
    30  H    0.000002   0.000567  -0.000004   0.001921  -0.002442   0.629939
    31  H   -0.000001  -0.000004   0.000572  -0.002425   0.001922  -0.021472
    32  H    0.000000  -0.000001   0.000003   0.000574  -0.000004   0.001924
    33  H    0.000000   0.000002  -0.000001  -0.000005   0.000569  -0.002430
    34  H    0.000000   0.000000   0.000000  -0.000001   0.000002   0.000566
    35  H    0.000000   0.000000   0.000000   0.000002  -0.000001  -0.000004
    36  H    0.000000   0.000000   0.000000   0.000000   0.000000  -0.000001
[...]
    44  H    0.000000   0.000000   0.000000   0.000000   0.000000   0.000000
    45  H    0.000000   0.000000   0.000000   0.000000   0.000000   0.000000
    46  H    0.000000   0.000000   0.000000   0.000000   0.000000   0.000000
    47  H    0.000000   0.000000   0.000000   0.000000   0.000000   0.000000
    48  H    0.000000   0.000000   0.000000   0.000000   0.000000   0.000000
    49  H    0.000000   0.000000   0.000000   0.000000   0.000000   0.000000
    50  H    0.000000   0.000000   0.000000   0.000000   0.000000   0.000000
              31         32         33         34         35         36
     1  C    0.000000   0.000000   0.000000   0.000000   0.000000   0.000000
     2  C    0.000000   0.000000   0.000000   0.000000   0.000000   0.000000
     3  C    0.000000   0.000000   0.000000   0.000000   0.000000   0.000000
     4  C    0.000005   0.000000   0.000000   0.000000   0.000000   0.000000
     5  C   -0.001946   0.000005   0.000005   0.000000   0.000000   0.000000
     6  C   -0.021226  -0.001945  -0.001945   0.000005   0.000005   0.000000
     7  C    0.377521  -0.021227  -0.021227  -0.001945  -0.001945   0.000005
     8  C   -0.021226   0.377521   0.377521  -0.021225  -0.021225  -0.001945
     9  C   -0.001945  -0.021225  -0.021225   0.377521   0.377521  -0.021226
    10  C    0.000005  -0.001945  -0.001945  -0.021227  -0.021227   0.377521
    11  C    0.000000   0.000005   0.000005  -0.001945  -0.001945  -0.021226
    12  C    0.000000   0.000000   0.000000   0.000005   0.000005  -0.001946
    13  C    0.000000   0.000000   0.000000   0.000000   0.000000   0.000005
    14  C    0.000000   0.000000   0.000000   0.000000   0.000000   0.000000
    15  C    0.000000   0.000000   0.000000   0.000000   0.000000   0.000000
    16  C    0.000000   0.000000   0.000000   0.000000   0.000000   0.000000
    17  H    0.000000   0.000000   0.000000   0.000000   0.000000   0.000000
    18  H    0.000000   0.000000   0.000000   0.000000   0.000000   0.000000
    19  H    0.000000   0.000000   0.000000   0.000000   0.000000   0.000000
    20  H    0.000000   0.000000   0.000000   0.000000   0.000000   0.000000
    21  H    0.000000   0.000000   0.000000   0.000000   0.000000   0.000000
    22  H    0.000000   0.000000   0.000000   0.000000   0.000000   0.000000
    23  H    0.000000   0.000000   0.000000   0.000000   0.000000   0.000000
    24  H    0.000002   0.000000   0.000000   0.000000   0.000000   0.000000
    25  H    0.000000   0.000000   0.000000   0.000000   0.000000   0.000000
    26  H   -0.000001   0.000000   0.000002   0.000000   0.000000   0.000000
    27  H    0.000534   0.000002   0.000000   0.000000   0.000000   0.000000
    28  H   -0.002194   0.000534  -0.000001   0.000000   0.000002   0.000000
    29  H    0.001812  -0.000001   0.000534   0.000002   0.000000   0.000000
    30  H   -0.023010   0.001812  -0.002195   0.000534  -0.000001   0.000000
    31  H    0.626599  -0.002195   0.001812  -0.000001   0.000534   0.000002
    32  H   -0.002195   0.626601  -0.023010   0.001812  -0.002194   0.000534
    33  H    0.001812  -0.023010   0.626601  -0.002194   0.001812  -0.000001
    34  H   -0.000001   0.001812  -0.002194   0.626601  -0.023010   0.001812
    35  H    0.000534  -0.002194   0.001812  -0.023010   0.626601  -0.002195
    36  H    0.000002   0.000534  -0.000001   0.001812  -0.002195   0.626599
    37  H    0.000000  -0.000001   0.000534  -0.002195   0.001812  -0.023010
    38  H    0.000000   0.000000   0.000002   0.000534  -0.000001   0.001812
    39  H    0.000000   0.000002   0.000000  -0.000001   0.000534  -0.002194
    40  H    0.000000   0.000000   0.000000   0.000000   0.000002   0.000534
    41  H    0.000000   0.000000   0.000000   0.000002   0.000000  -0.000001
    42  H    0.000000   0.000000   0.000000   0.000000   0.000000   0.000000
    43  H    0.000000   0.000000   0.000000   0.000000   0.000000   0.000002
    44  H    0.000000   0.000000   0.000000   0.000000   0.000000   0.000000
    45  H    0.000000   0.000000   0.000000   0.000000   0.000000   0.000000
    46  H    0.000000   0.000000   0.000000   0.000000   0.000000   0.000000
    47  H    0.000000   0.000000   0.000000   0.000000   0.000000   0.000000
    48  H    0.000000   0.000000   0.000000   0.000000   0.000000   0.000000
    49  H    0.000000   0.000000   0.000000   0.000000   0.000000   0.000000
    50  H    0.000000   0.000000   0.000000   0.000000   0.000000   0.000000
              37         38         39         40         41         42
     1  C    0.000000   0.000000   0.000000   0.000000   0.000000   0.000000
     2  C    0.000000   0.000000   0.000000   0.000000   0.000000   0.000000
     3  C    0.000000   0.000000   0.000000   0.000000   0.000000   0.000000
     4  C    0.000000   0.000000   0.000000   0.000000   0.000000   0.000000
     5  C    0.000000   0.000000   0.000000   0.000000   0.000000   0.000000
     6  C    0.000000   0.000000   0.000000   0.000000   0.000000   0.000000
     7  C    0.000005   0.000000   0.000000   0.000000   0.000000   0.000000
     8  C   -0.001945   0.000005   0.000005   0.000000   0.000000   0.000000
     9  C   -0.021226  -0.001945  -0.001945   0.000005   0.000005   0.000000
    10  C    0.377521  -0.021223  -0.021223  -0.001946  -0.001946   0.000005
    11  C   -0.021226   0.377521   0.377521  -0.021225  -0.021225  -0.001945
    12  C   -0.001946  -0.021227  -0.021227   0.377523   0.377523  -0.021217
    13  C    0.000005  -0.001945  -0.001945  -0.021228  -0.021228   0.377509
    14  C    0.000000   0.000005   0.000005  -0.001946  -0.001946  -0.021229
    15  C    0.000000   0.000000   0.000000   0.000005   0.000005  -0.001947
    16  C    0.000000   0.000000   0.000000   0.000000   0.000000   0.000005
    17  H    0.000000   0.000000   0.000000   0.000000   0.000000   0.000000
    18  H    0.000000   0.000000   0.000000   0.000000   0.000000   0.000000
    19  H    0.000000   0.000000   0.000000   0.000000   0.000000   0.000000
    20  H    0.000000   0.000000   0.000000   0.000000   0.000000   0.000000
    21  H    0.000000   0.000000   0.000000   0.000000   0.000000   0.000000
    22  H    0.000000   0.000000   0.000000   0.000000   0.000000   0.000000
    23  H    0.000000   0.000000   0.000000   0.000000   0.000000   0.000000
    24  H    0.000000   0.000000   0.000000   0.000000   0.000000   0.000000
    25  H    0.000000   0.000000   0.000000   0.000000   0.000000   0.000000
    26  H    0.000000   0.000000   0.000000   0.000000   0.000000   0.000000
    27  H    0.000000   0.000000   0.000000   0.000000   0.000000   0.000000
    28  H    0.000000   0.000000   0.000000   0.000000   0.000000   0.000000
    29  H    0.000000   0.000000   0.000000   0.000000   0.000000   0.000000
    30  H    0.000002   0.000000   0.000000   0.000000   0.000000   0.000000
    31  H    0.000000   0.000000   0.000000   0.000000   0.000000   0.000000
    32  H   -0.000001   0.000000   0.000002   0.000000   0.000000   0.000000
    33  H    0.000534   0.000002   0.000000   0.000000   0.000000   0.000000
    34  H   -0.002195   0.000534  -0.000001   0.000000   0.000002   0.000000
    35  H    0.001812  -0.000001   0.000534   0.000002   0.000000   0.000000
    36  H   -0.023010   0.001812  -0.002194   0.000534  -0.000001   0.000000
    37  H    0.626599  -0.002194   0.001812  -0.000001   0.000534   0.000002
    38  H   -0.002194   0.626594  -0.023010   0.001812  -0.002195   0.000534
    39  H    0.001812  -0.023010   0.626594  -0.002195   0.001812  -0.000001
    40  H   -0.000001   0.001812  -0.002195   0.626575  -0.023008   0.001812
    41  H    0.000534  -0.002195   0.001812  -0.023008   0.626575  -0.002195
    42  H    0.000002   0.000534  -0.000001   0.001812  -0.002195   0.626609
    43  H    0.000000  -0.000001   0.000534  -0.002195   0.001812  -0.023013
    44  H    0.000000   0.000000   0.000002   0.000533  -0.000001   0.001812
    45  H    0.000000   0.000002   0.000000  -0.000001   0.000533  -0.002193
    46  H    0.000000   0.000000   0.000000   0.000000   0.000002   0.000541
    47  H    0.000000   0.000000   0.000000   0.000002   0.000000  -0.000002
    48  H    0.000000   0.000000   0.000000   0.000000   0.000000   0.000002
    49  H    0.000000   0.000000   0.000000   0.000000   0.000000   0.000000
    50  H    0.000000   0.000000   0.000000   0.000000   0.000000   0.000000
              43         44         45         46         47         48
     1  C    0.000000   0.000000   0.000000   0.000000   0.000000   0.000000
     2  C    0.000000   0.000000   0.000000   0.000000   0.000000   0.000000
     3  C    0.000000   0.000000   0.000000   0.000000   0.000000   0.000000
     4  C    0.000000   0.000000   0.000000   0.000000   0.000000   0.000000
     5  C    0.000000   0.000000   0.000000   0.000000   0.000000   0.000000
     6  C    0.000000   0.000000   0.000000   0.000000   0.000000   0.000000
     7  C    0.000000   0.000000   0.000000   0.000000   0.000000   0.000000
     8  C    0.000000   0.000000   0.000000   0.000000   0.000000   0.000000
     9  C    0.000000   0.000000   0.000000   0.000000   0.000000   0.000000
    10  C    0.000005   0.000000   0.000000   0.000000   0.000000   0.000000
    11  C   -0.001945   0.000005   0.000005   0.000000   0.000000   0.000000
    12  C   -0.021217  -0.001945  -0.001945   0.000004   0.000004   0.000000
    13  C    0.377509  -0.021209  -0.021209  -0.001942  -0.001942   0.000006
    14  C   -0.021229   0.377532   0.377532  -0.021337  -0.021337  -0.001954
    15  C   -0.001947  -0.021238  -0.021238   0.378131   0.378131  -0.019570
    16  C    0.000005  -0.001921  -0.001921  -0.021187  -0.021187   0.379493
    17  H    0.000000   0.000000   0.000000   0.000000   0.000000   0.000000
    18  H    0.000000   0.000000   0.000000   0.000000   0.000000   0.000000
    19  H    0.000000   0.000000   0.000000   0.000000   0.000000   0.000000
    20  H    0.000000   0.000000   0.000000   0.000000   0.000000   0.000000
    21  H    0.000000   0.000000   0.000000   0.000000   0.000000   0.000000
    22  H    0.000000   0.000000   0.000000   0.000000   0.000000   0.000000
    23  H    0.000000   0.000000   0.000000   0.000000   0.000000   0.000000
    24  H    0.000000   0.000000   0.000000   0.000000   0.000000   0.000000
    25  H    0.000000   0.000000   0.000000   0.000000   0.000000   0.000000
    26  H    0.000000   0.000000   0.000000   0.000000   0.000000   0.000000
    27  H    0.000000   0.000000   0.000000   0.000000   0.000000   0.000000
    28  H    0.000000   0.000000   0.000000   0.000000   0.000000   0.000000
    29  H    0.000000   0.000000   0.000000   0.000000   0.000000   0.000000
    30  H    0.000000   0.000000   0.000000   0.000000   0.000000   0.000000
    31  H    0.000000   0.000000   0.000000   0.000000   0.000000   0.000000
    32  H    0.000000   0.000000   0.000000   0.000000   0.000000   0.000000
    33  H    0.000000   0.000000   0.000000   0.000000   0.000000   0.000000
    34  H    0.000000   0.000000   0.000000   0.000000   0.000000   0.000000
    35  H    0.000000   0.000000   0.000000   0.000000   0.000000   0.000000
    36  H    0.000002   0.000000   0.000000   0.000000   0.000000   0.000000
    37  H    0.000000   0.000000   0.000000   0.000000   0.000000   0.000000
    38  H   -0.000001   0.000000   0.000002   0.000000   0.000000   0.000000
    39  H    0.000534   0.000002   0.000000   0.000000   0.000000   0.000000
    40  H   -0.002195   0.000533  -0.000001   0.000000   0.000002   0.000000
    41  H    0.001812  -0.000001   0.000533   0.000002   0.000000   0.000000
    42  H   -0.023013   0.001812  -0.002193   0.000541  -0.000002   0.000002
    43  H    0.626609  -0.002193   0.001812  -0.000002   0.000541   0.000000
    44  H   -0.002193   0.626464  -0.022995   0.001817  -0.002204  -0.000012
    45  H    0.001812  -0.022995   0.626464  -0.002204   0.001817   0.000534
    46  H   -0.000002   0.001817  -0.002204   0.625070  -0.022910  -0.002171
    47  H    0.000541  -0.002204   0.001817  -0.022910   0.625070   0.001807
    48  H    0.000000  -0.000012   0.000534  -0.002171   0.001807   0.613510
    49  H    0.000000   0.000006   0.000006  -0.002051  -0.002051  -0.020909
    50  H    0.000002   0.000534  -0.000012   0.001807  -0.002171  -0.021156
              49         50
     1  C    0.000000   0.000000
     2  C    0.000000   0.000000
     3  C    0.000000   0.000000
     4  C    0.000000   0.000000
     5  C    0.000000   0.000000
     6  C    0.000000   0.000000
     7  C    0.000000   0.000000
     8  C    0.000000   0.000000
     9  C    0.000000   0.000000
    10  C    0.000000   0.000000
    11  C    0.000000   0.000000
    12  C    0.000000   0.000000
    13  C   -0.000013   0.000006
    14  C    0.001146  -0.001954
    15  C   -0.018568  -0.019570
    16  C    0.379545   0.379493
    17  H    0.000000   0.000000
    18  H    0.000000   0.000000
    19  H    0.000000   0.000000
    20  H    0.000000   0.000000
    21  H    0.000000   0.000000
    22  H    0.000000   0.000000
    23  H    0.000000   0.000000
    24  H    0.000000   0.000000
    25  H    0.000000   0.000000
    26  H    0.000000   0.000000
    27  H    0.000000   0.000000
    28  H    0.000000   0.000000
    29  H    0.000000   0.000000
    30  H    0.000000   0.000000
    31  H    0.000000   0.000000
    32  H    0.000000   0.000000
    33  H    0.000000   0.000000
    34  H    0.000000   0.000000
    35  H    0.000000   0.000000
    36  H    0.000000   0.000000
    37  H    0.000000   0.000000
    38  H    0.000000   0.000000
    39  H    0.000000   0.000000
    40  H    0.000000   0.000000
    41  H    0.000000   0.000000
    42  H    0.000000   0.000000
    43  H    0.000000   0.000002
    44  H    0.000006   0.000534
    45  H    0.000006  -0.000012
    46  H   -0.002051   0.001807
    47  H   -0.002051  -0.002171
    48  H   -0.020909  -0.021156
    49  H    0.612462  -0.020909
    50  H   -0.020909   0.613510
 Mulliken charges:
               1
     1  C   -0.218025
     2  C   -0.127654
     3  C   -0.129461
     4  C   -0.129927
     5  C   -0.129802
     6  C   -0.129814
     7  C   -0.129813
     8  C   -0.129814
     9  C   -0.129814
    10  C   -0.129814
    11  C   -0.129814
    12  C   -0.129802
    13  C   -0.129927
    14  C   -0.129461
    15  C   -0.127654
    16  C   -0.218025
    17  H    0.071335
    18  H    0.070420
    19  H    0.070420
    20  H    0.066432
    21  H    0.066432
    22  H    0.065014
    23  H    0.065014
    24  H    0.064913
    25  H    0.064913
    26  H    0.064944
    27  H    0.064944
    28  H    0.064924
    29  H    0.064924
    30  H    0.064922
    31  H    0.064922
    32  H    0.064919
    33  H    0.064919
    34  H    0.064919
    35  H    0.064919
    36  H    0.064922
    37  H    0.064922
    38  H    0.064924
    39  H    0.064924
    40  H    0.064944
    41  H    0.064944
    42  H    0.064913
    43  H    0.064913
    44  H    0.065014
    45  H    0.065014
    46  H    0.066432
    47  H    0.066432
    48  H    0.070420
    49  H    0.071335
    50  H    0.070420
 Sum of Mulliken charges =   0.00000
 Mulliken charges with hydrogens summed into heavy atoms:
               1
     1  C   -0.005850
     2  C    0.005211
     3  C    0.000567
     4  C   -0.000102
     5  C    0.000087
     6  C    0.000033
     7  C    0.000030
     8  C    0.000024
     9  C    0.000024
    10  C    0.000030
    11  C    0.000034
    12  C    0.000087
    13  C   -0.000102
    14  C    0.000567
    15  C    0.005211
    16  C   -0.005850
 Electronic spatial extent (au):  <R**2>=          17653.7575
 Charge=              0.0000 electrons
 Dipole moment (field-independent basis, Debye):
    X=              0.0000    Y=              0.0000    Z=              0.0000  Tot=              0.0000
 Quadrupole moment (field-independent basis, Debye-Ang):
   XX=           -102.5490   YY=           -100.7331   ZZ=            -99.0847
   XY=              0.3241   XZ=              0.0000   YZ=              0.0000
 Traceless Quadrupole moment (field-independent basis, Debye-Ang):
   XX=             -1.7601   YY=              0.0558   ZZ=              1.7043
   XY=              0.3241   XZ=              0.0000   YZ=              0.0000
 Octapole moment (field-independent basis, Debye-Ang**2):
  XXX=              0.0001  YYY=              0.0000  ZZZ=              0.0000  XYY=              0.0000
  XXY=              0.0000  XXZ=              0.0000  XZZ=              0.0000  YZZ=              0.0000
  YYZ=              0.0000  XYZ=              0.0000
 Hexadecapole moment (field-independent basis, Debye-Ang**3):
 XXXX=         -22725.5504 YYYY=           -343.7128 ZZZZ=           -190.8192 XXXY=             77.5260
 XXXZ=              0.0000 YYYX=              0.5093 YYYZ=              0.0000 ZZZX=              0.0000
 ZZZY=              0.0000 XXYY=          -3788.4464 XXZZ=          -3716.7736 YYZZ=            -76.9233
 XXYZ=              0.0000 YYXZ=              0.0000 ZZXY=             -6.1733
 N-N= 9.891307644177D+02 E-N=-3.415048552559D+03  KE= 6.114900308498D+02
 1\1\GINC-PC-AVL46\FOpt\RB3LYP\STO-3G\C16H34\BING\28-Jan-2019\0\\# opt(
 tight) b3lyp/sto-3g\\c16h34\\0,1\C,-0.0301778211,-1.0543274114,-2.5899
 157116\C,0.3909546255,-2.428555906,-1.9939380368\C,1.6716291046,-2.324
 128012,-1.1078199526\C,2.0937661204,-3.7027340656,-0.5101831645\C,3.37
 44534512,-3.5978157805,0.3758382963\C,3.7967413319,-4.9764709269,0.973
 5930296\C,5.0774656017,-4.8713664089,1.8596002744\C,5.499850054,-6.249
 9711512,2.4574133513\C,6.780578705,-6.144813954,3.3434120855\C,7.20295
 98976,-7.523420137,3.9412241519\C,8.4836839728,-7.4183226112,4.8272325
 103\C,8.9059626257,-8.7969818726,5.4249842822\C,10.1866493643,-8.69207
 64718,6.3110081543\C,10.6087727061,-10.0706888142,6.908640055\C,11.889
 4456347,-9.9662779436,7.7947624552\C,12.3105621083,-11.3405144414,8.39
 07330066\H,-0.9345716116,-1.1608432284,-3.2085917787\H,0.7726467458,-0
 .6413904666,-3.2198154236\H,-0.2436908795,-0.3316516397,-1.7874384418\
 H,0.5746811047,-3.1428845238,-2.8155076169\H,-0.4381351964,-2.83422019
 58,-1.3880965379\H,1.4884645033,-1.6103699306,-0.2856053089\H,2.501393
 3624,-1.9190683019,-1.7131749715\H,2.2766196748,-4.4162416383,-1.33269
 67984\H,1.2636686105,-4.1075366737,0.0949037162\H,3.1915492631,-2.8842
 792729,1.1983060487\H,4.2044970069,-3.1929834699,-0.2292897855\H,3.979
 6649474,-5.6900116563,0.1511325603\H,2.96671048,-5.3813052505,1.578738
 1355\H,4.8945231905,-4.1578043641,2.6820379695\H,5.9074734169,-4.46651
 00728,1.2544384266\H,5.6827982538,-6.9635353186,1.6349786879\H,4.66984
 67091,-6.6548289179,3.0625805031\H,6.5976311397,-5.4312498203,4.165846
 9256\H,7.6105826854,-5.7399570159,2.7382452466\H,7.3859004004,-8.23698
 16143,3.118785547\H,6.3729505133,-7.9282746846,4.546385037\H,8.3007634
 035,-6.7047825658,5.6496942563\H,9.3137175462,-7.0134915341,4.22208896
 63\H,9.0888629715,-9.51051716,4.602514626\H,8.07591545,-9.2018102647,6
 .0301100152\H,10.0038004001,-7.9785704434,7.1335241547\H,11.0167513118
 ,-8.2872786168,5.7059241906\H,10.7919329178,-10.7844447352,6.086422566
 1\H,9.7790030583,-10.4757436751,7.5139909267\H,11.7057237333,-9.251952
 2766,8.6163356238\H,12.7185412499,-9.5606183517,7.1889257487\H,11.5077
 293315,-11.7534489374,9.020623875\H,13.2149524472,-11.2340114138,9.009
 4163231\H,12.5240743761,-12.06318606,7.5882517995\\Version=ES64L-G09Re
 vD.01\State=1-A\HF=-622.7602386\RMSD=3.816e-09\RMSF=7.079e-08\Dipole=-
 0.0000004,-0.0000007,-0.0000001\Quadrupole=0.0225767,-0.4621375,0.4395
 608,0.3913766,-0.9676605,0.6516273\PG=C01 [X(C16H34)]\\@


 WE DON'T KNOW ONE MILLIONTH OF ONE PERCENT ABOUT
 ANYTHING.
                                     T. A. EDISON.
 Job cpu time:       0 days  0 hours  4 minutes 51.6 seconds.
 File lengths (MBytes):  RWF=     11 Int=      0 D2E=      0 Chk=      4 Scr=      1
 Normal termination of Gaussian 09 at Mon Jan 28 19:30:11 2019.
