 Entering Gaussian System, Link 0=g09
 Input=c16h18.com
 Output=c16h18.out
 Initial command:
 /apps/g09_d.01/g09/l1.exe "/data/scratch/Gau-51445.inp" -scrdir="/data/scratch/"
 Entering Link 1 = /apps/g09_d.01/g09/l1.exe PID=     51452.
  
 Copyright (c) 1988,1990,1992,1993,1995,1998,2003,2009,2013,
            Gaussian, Inc.  All Rights Reserved.
  
 This is part of the Gaussian(R) 09 program.  It is based on
 the Gaussian(R) 03 system (copyright 2003, Gaussian, Inc.),
 the Gaussian(R) 98 system (copyright 1998, Gaussian, Inc.),
 the Gaussian(R) 94 system (copyright 1995, Gaussian, Inc.),
 the Gaussian 92(TM) system (copyright 1992, Gaussian, Inc.),
 the Gaussian 90(TM) system (copyright 1990, Gaussian, Inc.),
 the Gaussian 88(TM) system (copyright 1988, Gaussian, Inc.),
 the Gaussian 86(TM) system (copyright 1986, Carnegie Mellon
 University), and the Gaussian 82(TM) system (copyright 1983,
 Carnegie Mellon University). Gaussian is a federally registered
 trademark of Gaussian, Inc.
  
 This software contains proprietary and confidential information,
 including trade secrets, belonging to Gaussian, Inc.
  
 This software is provided under written license and may be
 used, copied, transmitted, or stored only in accord with that
 written license.
  
 The following legend is applicable only to US Government
 contracts under FAR:
  
                    RESTRICTED RIGHTS LEGEND
  
 Use, reproduction and disclosure by the US Government is
 subject to restrictions as set forth in subparagraphs (a)
 and (c) of the Commercial Computer Software - Restricted
 Rights clause in FAR 52.227-19.
  
 Gaussian, Inc.
 340 Quinnipiac St., Bldg. 40, Wallingford CT 06492
  
  
 ---------------------------------------------------------------
 Warning -- This program may not be used in any manner that
 competes with the business of Gaussian, Inc. or will provide
 assistance to any competitor of Gaussian, Inc.  The licensee
 of this program is prohibited from giving any competitor of
 Gaussian, Inc. access to this program.  By using this program,
 the user acknowledges that Gaussian, Inc. is engaged in the
 business of creating and licensing software in the field of
 computational chemistry and represents and warrants to the
 licensee that it is not a competitor of Gaussian, Inc. and that
 it will not use this program in any manner prohibited above.
 ---------------------------------------------------------------
  

 Cite this work as:
 Gaussian 09, Revision D.01,
 M. J. Frisch, G. W. Trucks, H. B. Schlegel, G. E. Scuseria, 
 M. A. Robb, J. R. Cheeseman, G. Scalmani, V. Barone, B. Mennucci, 
 G. A. Petersson, H. Nakatsuji, M. Caricato, X. Li, H. P. Hratchian, 
 A. F. Izmaylov, J. Bloino, G. Zheng, J. L. Sonnenberg, M. Hada, 
 M. Ehara, K. Toyota, R. Fukuda, J. Hasegawa, M. Ishida, T. Nakajima, 
 Y. Honda, O. Kitao, H. Nakai, T. Vreven, J. A. Montgomery, Jr., 
 J. E. Peralta, F. Ogliaro, M. Bearpark, J. J. Heyd, E. Brothers, 
 K. N. Kudin, V. N. Staroverov, T. Keith, R. Kobayashi, J. Normand, 
 K. Raghavachari, A. Rendell, J. C. Burant, S. S. Iyengar, J. Tomasi, 
 M. Cossi, N. Rega, J. M. Millam, M. Klene, J. E. Knox, J. B. Cross, 
 V. Bakken, C. Adamo, J. Jaramillo, R. Gomperts, R. E. Stratmann, 
 O. Yazyev, A. J. Austin, R. Cammi, C. Pomelli, J. W. Ochterski, 
 R. L. Martin, K. Morokuma, V. G. Zakrzewski, G. A. Voth, 
 P. Salvador, J. J. Dannenberg, S. Dapprich, A. D. Daniels, 
 O. Farkas, J. B. Foresman, J. V. Ortiz, J. Cioslowski, 
 and D. J. Fox, Gaussian, Inc., Wallingford CT, 2013.
 
 ******************************************
 Gaussian 09:  ES64L-G09RevD.01 24-Apr-2013
                28-Jan-2019 
 ******************************************
 %nproc=6
 Will use up to    6 processors via shared memory.
 -------------------------
 # opt(tight) b3lyp/sto-3g
 -------------------------
 1/7=10,14=-1,18=20,19=15,26=3,38=1/1,3;
 2/9=110,12=2,17=6,18=5,40=1/2;
 3/6=3,11=2,16=1,25=1,30=1,71=1,74=-5/1,2,3;
 4//1;
 5/5=2,38=5/2;
 6/7=2,8=2,9=2,10=2,28=1/1;
 7//1,2,3,16;
 1/7=10,14=-1,18=20,19=15,26=3/3(2);
 2/9=110/2;
 99//99;
 2/9=110/2;
 3/6=3,11=2,16=1,25=1,30=1,71=1,74=-5/1,2,3;
 4/5=5,16=3,69=1/1;
 5/5=2,38=5/2;
 7//1,2,3,16;
 1/7=10,14=-1,18=20,19=15,26=3/3(-5);
 2/9=110/2;
 6/7=2,8=2,9=2,10=2,19=2,28=1/1;
 99/9=1/99;
 ------
 c16h18
 ------
 Symbolic Z-matrix:
 Charge =  0 Multiplicity = 1
 C                     1.27476  -0.29985  -0.24386 
 C                     1.80511   0.5296   -1.14564 
 C                     3.26708   0.72783  -1.22795 
 C                     3.79445   1.56123  -2.13456 
 C                     5.25648   1.76102  -2.21867 
 C                     5.78147   2.59499  -3.12618 
 C                     7.24298   2.79711  -3.21302 
 C                     7.76443   3.6319   -4.12184 
 C                     9.22526   3.83702  -4.21221 
 C                     9.74272   4.67275  -5.12251 
 C                     11.20285   4.88086  -5.21639 
 C                     11.71677   5.71742  -6.128 
 C                     13.17638   5.92787  -6.22464 
 C                     13.68793   6.76495  -7.13709 
 C                     15.14695   6.9764   -7.23493 
 C                     15.65959   7.80997  -8.14324 
 H                     0.19879  -0.43336  -0.19753 
 H                     1.90528  -0.84807   0.45003 
 H                     1.14655   1.06338  -1.8257 
 H                     3.91878   0.18951  -0.54335 
 H                     3.14176   2.09903  -2.81867 
 H                     5.91001   1.22371  -1.53504 
 H                     5.127     3.13181  -3.80934 
 H                     7.89883   2.26106  -2.53062 
 H                     7.10739   4.16731  -4.80364 
 H                     9.88386   3.30249  -3.53127 
 H                     9.08293   5.20664  -5.80284 
 H                     11.86403   4.34775  -4.53683 
 H                     11.05467   6.25003  -6.80709 
 H                     13.83948   5.39584  -5.54612 
 H                     13.02475   7.29698  -7.81562 
 H                     15.81762   6.44945  -6.5615 
 H                     15.01629   8.3515   -8.83072 
 H                     16.73362   7.95375  -8.2016 
 

 GradGradGradGradGradGradGradGradGradGradGradGradGradGradGradGradGradGrad
 Berny optimization.
 Initialization pass.
                           ----------------------------
                           !    Initial Parameters    !
                           ! (Angstroms and Degrees)  !
 --------------------------                            --------------------------
 ! Name  Definition              Value          Derivative Info.                !
 --------------------------------------------------------------------------------
 ! R1    R(1,2)                  1.3351         estimate D2E/DX2                !
 ! R2    R(1,17)                 1.0852         estimate D2E/DX2                !
 ! R3    R(1,18)                 1.0861         estimate D2E/DX2                !
 ! R4    R(2,3)                  1.4776         estimate D2E/DX2                !
 ! R5    R(2,19)                 1.0868         estimate D2E/DX2                !
 ! R6    R(3,4)                  1.3396         estimate D2E/DX2                !
 ! R7    R(3,20)                 1.0877         estimate D2E/DX2                !
 ! R8    R(4,5)                  1.478          estimate D2E/DX2                !
 ! R9    R(4,21)                 1.0878         estimate D2E/DX2                !
 ! R10   R(5,6)                  1.3397         estimate D2E/DX2                !
 ! R11   R(5,22)                 1.0877         estimate D2E/DX2                !
 ! R12   R(6,7)                  1.478          estimate D2E/DX2                !
 ! R13   R(6,23)                 1.0878         estimate D2E/DX2                !
 ! R14   R(7,8)                  1.3397         estimate D2E/DX2                !
 ! R15   R(7,24)                 1.0877         estimate D2E/DX2                !
 ! R16   R(8,9)                  1.4779         estimate D2E/DX2                !
 ! R17   R(8,25)                 1.0878         estimate D2E/DX2                !
 ! R18   R(9,10)                 1.3397         estimate D2E/DX2                !
 ! R19   R(9,26)                 1.0877         estimate D2E/DX2                !
 ! R20   R(10,11)                1.4779         estimate D2E/DX2                !
 ! R21   R(10,27)                1.0878         estimate D2E/DX2                !
 ! R22   R(11,12)                1.3398         estimate D2E/DX2                !
 ! R23   R(11,28)                1.0877         estimate D2E/DX2                !
 ! R24   R(12,13)                1.4779         estimate D2E/DX2                !
 ! R25   R(12,29)                1.0878         estimate D2E/DX2                !
 ! R26   R(13,14)                1.3398         estimate D2E/DX2                !
 ! R27   R(13,30)                1.0877         estimate D2E/DX2                !
 ! R28   R(14,15)                1.4775         estimate D2E/DX2                !
 ! R29   R(14,31)                1.0878         estimate D2E/DX2                !
 ! R30   R(15,16)                1.3352         estimate D2E/DX2                !
 ! R31   R(15,32)                1.0867         estimate D2E/DX2                !
 ! R32   R(16,33)                1.0861         estimate D2E/DX2                !
 ! R33   R(16,34)                1.0852         estimate D2E/DX2                !
 ! A1    A(2,1,17)             119.9422         estimate D2E/DX2                !
 ! A2    A(2,1,18)             120.9651         estimate D2E/DX2                !
 ! A3    A(17,1,18)            119.0927         estimate D2E/DX2                !
 ! A4    A(1,2,3)              120.9303         estimate D2E/DX2                !
 ! A5    A(1,2,19)             119.1492         estimate D2E/DX2                !
 ! A6    A(3,2,19)             119.9204         estimate D2E/DX2                !
 ! A7    A(2,3,4)              120.707          estimate D2E/DX2                !
 ! A8    A(2,3,20)             119.4278         estimate D2E/DX2                !
 ! A9    A(4,3,20)             119.8651         estimate D2E/DX2                !
 ! A10   A(3,4,5)              120.7983         estimate D2E/DX2                !
 ! A11   A(3,4,21)             119.8009         estimate D2E/DX2                !
 ! A12   A(5,4,21)             119.4009         estimate D2E/DX2                !
 ! A13   A(4,5,6)              120.6867         estimate D2E/DX2                !
 ! A14   A(4,5,22)             119.458          estimate D2E/DX2                !
 ! A15   A(6,5,22)             119.8553         estimate D2E/DX2                !
 ! A16   A(5,6,7)              120.8273         estimate D2E/DX2                !
 ! A17   A(5,6,23)             119.7942         estimate D2E/DX2                !
 ! A18   A(7,6,23)             119.3784         estimate D2E/DX2                !
 ! A19   A(6,7,8)              120.6621         estimate D2E/DX2                !
 ! A20   A(6,7,24)             119.4708         estimate D2E/DX2                !
 ! A21   A(8,7,24)             119.8671         estimate D2E/DX2                !
 ! A22   A(7,8,9)              120.8436         estimate D2E/DX2                !
 ! A23   A(7,8,25)             119.7892         estimate D2E/DX2                !
 ! A24   A(9,8,25)             119.3672         estimate D2E/DX2                !
 ! A25   A(8,9,10)             120.6573         estimate D2E/DX2                !
 ! A26   A(8,9,26)             119.4718         estimate D2E/DX2                !
 ! A27   A(10,9,26)            119.8709         estimate D2E/DX2                !
 ! A28   A(9,10,11)            120.838          estimate D2E/DX2                !
 ! A29   A(9,10,27)            119.7929         estimate D2E/DX2                !
 ! A30   A(11,10,27)           119.3691         estimate D2E/DX2                !
 ! A31   A(10,11,12)           120.6728         estimate D2E/DX2                !
 ! A32   A(10,11,28)           119.4623         estimate D2E/DX2                !
 ! A33   A(12,11,28)           119.8649         estimate D2E/DX2                !
 ! A34   A(11,12,13)           120.8145         estimate D2E/DX2                !
 ! A35   A(11,12,29)           119.8045         estimate D2E/DX2                !
 ! A36   A(13,12,29)           119.381          estimate D2E/DX2                !
 ! A37   A(12,13,14)           120.7047         estimate D2E/DX2                !
 ! A38   A(12,13,30)           119.4489         estimate D2E/DX2                !
 ! A39   A(14,13,30)           119.8464         estimate D2E/DX2                !
 ! A40   A(13,14,15)           120.7679         estimate D2E/DX2                !
 ! A41   A(13,14,31)           119.8433         estimate D2E/DX2                !
 ! A42   A(15,14,31)           119.3888         estimate D2E/DX2                !
 ! A43   A(14,15,16)           120.9003         estimate D2E/DX2                !
 ! A44   A(14,15,32)           119.9334         estimate D2E/DX2                !
 ! A45   A(16,15,32)           119.1662         estimate D2E/DX2                !
 ! A46   A(15,16,33)           120.9615         estimate D2E/DX2                !
 ! A47   A(15,16,34)           119.9544         estimate D2E/DX2                !
 ! A48   A(33,16,34)           119.084          estimate D2E/DX2                !
 ! D1    D(17,1,2,3)           179.9999         estimate D2E/DX2                !
 ! D2    D(17,1,2,19)            0.0005         estimate D2E/DX2                !
 ! D3    D(18,1,2,3)            -0.0004         estimate D2E/DX2                !
 ! D4    D(18,1,2,19)         -179.9997         estimate D2E/DX2                !
 ! D5    D(1,2,3,4)           -179.9996         estimate D2E/DX2                !
 ! D6    D(1,2,3,20)             0.0007         estimate D2E/DX2                !
 ! D7    D(19,2,3,4)            -0.0002         estimate D2E/DX2                !
 ! D8    D(19,2,3,20)         -180.0            estimate D2E/DX2                !
 ! D9    D(2,3,4,5)           -179.9997         estimate D2E/DX2                !
 ! D10   D(2,3,4,21)            -0.0002         estimate D2E/DX2                !
 ! D11   D(20,3,4,5)             0.0001         estimate D2E/DX2                !
 ! D12   D(20,3,4,21)          179.9996         estimate D2E/DX2                !
 ! D13   D(3,4,5,6)            179.9998         estimate D2E/DX2                !
 ! D14   D(3,4,5,22)            -0.0005         estimate D2E/DX2                !
 ! D15   D(21,4,5,6)             0.0002         estimate D2E/DX2                !
 ! D16   D(21,4,5,22)          180.0            estimate D2E/DX2                !
 ! D17   D(4,5,6,7)            179.9999         estimate D2E/DX2                !
 ! D18   D(4,5,6,23)            -0.0003         estimate D2E/DX2                !
 ! D19   D(22,5,6,7)             0.0001         estimate D2E/DX2                !
 ! D20   D(22,5,6,23)          180.0            estimate D2E/DX2                !
 ! D21   D(5,6,7,8)            179.9996         estimate D2E/DX2                !
 ! D22   D(5,6,7,24)             0.0003         estimate D2E/DX2                !
 ! D23   D(23,6,7,8)            -0.0003         estimate D2E/DX2                !
 ! D24   D(23,6,7,24)         -179.9995         estimate D2E/DX2                !
 ! D25   D(6,7,8,9)           -179.9997         estimate D2E/DX2                !
 ! D26   D(6,7,8,25)             0.0            estimate D2E/DX2                !
 ! D27   D(24,7,8,9)            -0.0005         estimate D2E/DX2                !
 ! D28   D(24,7,8,25)          179.9993         estimate D2E/DX2                !
 ! D29   D(7,8,9,10)           180.0            estimate D2E/DX2                !
 ! D30   D(7,8,9,26)            -0.0001         estimate D2E/DX2                !
 ! D31   D(25,8,9,10)            0.0003         estimate D2E/DX2                !
 ! D32   D(25,8,9,26)         -179.9999         estimate D2E/DX2                !
 ! D33   D(8,9,10,11)          180.0            estimate D2E/DX2                !
 ! D34   D(8,9,10,27)           -0.0005         estimate D2E/DX2                !
 ! D35   D(26,9,10,11)           0.0001         estimate D2E/DX2                !
 ! D36   D(26,9,10,27)         179.9997         estimate D2E/DX2                !
 ! D37   D(9,10,11,12)         179.9999         estimate D2E/DX2                !
 ! D38   D(9,10,11,28)           0.0            estimate D2E/DX2                !
 ! D39   D(27,10,11,12)          0.0004         estimate D2E/DX2                !
 ! D40   D(27,10,11,28)       -179.9996         estimate D2E/DX2                !
 ! D41   D(10,11,12,13)       -179.9996         estimate D2E/DX2                !
 ! D42   D(10,11,12,29)         -0.0005         estimate D2E/DX2                !
 ! D43   D(28,11,12,13)          0.0004         estimate D2E/DX2                !
 ! D44   D(28,11,12,29)        179.9995         estimate D2E/DX2                !
 ! D45   D(11,12,13,14)        179.9998         estimate D2E/DX2                !
 ! D46   D(11,12,13,30)         -0.0008         estimate D2E/DX2                !
 ! D47   D(29,12,13,14)          0.0008         estimate D2E/DX2                !
 ! D48   D(29,12,13,30)       -179.9999         estimate D2E/DX2                !
 ! D49   D(12,13,14,15)        179.9997         estimate D2E/DX2                !
 ! D50   D(12,13,14,31)         -0.0008         estimate D2E/DX2                !
 ! D51   D(30,13,14,15)          0.0004         estimate D2E/DX2                !
 ! D52   D(30,13,14,31)        179.9999         estimate D2E/DX2                !
 ! D53   D(13,14,15,16)        179.9997         estimate D2E/DX2                !
 ! D54   D(13,14,15,32)         -0.0005         estimate D2E/DX2                !
 ! D55   D(31,14,15,16)          0.0002         estimate D2E/DX2                !
 ! D56   D(31,14,15,32)        180.0            estimate D2E/DX2                !
 ! D57   D(14,15,16,33)         -0.0001         estimate D2E/DX2                !
 ! D58   D(14,15,16,34)       -179.9998         estimate D2E/DX2                !
 ! D59   D(32,15,16,33)       -179.9999         estimate D2E/DX2                !
 ! D60   D(32,15,16,34)          0.0004         estimate D2E/DX2                !
 --------------------------------------------------------------------------------
 Trust Radius=3.00D-01 FncErr=1.00D-07 GrdErr=1.00D-06
 Number of steps in this run=    151 maximum allowed number of steps=    204.
 GradGradGradGradGradGradGradGradGradGradGradGradGradGradGradGradGradGrad

                          Input orientation:                          
 ---------------------------------------------------------------------
 Center     Atomic      Atomic             Coordinates (Angstroms)
 Number     Number       Type             X           Y           Z
 ---------------------------------------------------------------------
      1          6           0        1.274760   -0.299850   -0.243860
      2          6           0        1.805110    0.529600   -1.145640
      3          6           0        3.267080    0.727830   -1.227950
      4          6           0        3.794450    1.561230   -2.134560
      5          6           0        5.256480    1.761020   -2.218670
      6          6           0        5.781470    2.594990   -3.126180
      7          6           0        7.242980    2.797110   -3.213020
      8          6           0        7.764430    3.631900   -4.121840
      9          6           0        9.225260    3.837020   -4.212210
     10          6           0        9.742720    4.672750   -5.122510
     11          6           0       11.202850    4.880860   -5.216390
     12          6           0       11.716770    5.717420   -6.128000
     13          6           0       13.176380    5.927870   -6.224640
     14          6           0       13.687930    6.764950   -7.137090
     15          6           0       15.146950    6.976400   -7.234930
     16          6           0       15.659590    7.809970   -8.143240
     17          1           0        0.198790   -0.433360   -0.197530
     18          1           0        1.905280   -0.848070    0.450030
     19          1           0        1.146550    1.063380   -1.825700
     20          1           0        3.918780    0.189510   -0.543350
     21          1           0        3.141760    2.099030   -2.818670
     22          1           0        5.910010    1.223710   -1.535040
     23          1           0        5.127000    3.131810   -3.809340
     24          1           0        7.898830    2.261060   -2.530620
     25          1           0        7.107390    4.167310   -4.803640
     26          1           0        9.883860    3.302490   -3.531270
     27          1           0        9.082930    5.206640   -5.802840
     28          1           0       11.864030    4.347750   -4.536830
     29          1           0       11.054670    6.250030   -6.807090
     30          1           0       13.839480    5.395840   -5.546120
     31          1           0       13.024750    7.296980   -7.815620
     32          1           0       15.817620    6.449450   -6.561500
     33          1           0       15.016290    8.351500   -8.830720
     34          1           0       16.733620    7.953750   -8.201600
 ---------------------------------------------------------------------
                    Distance matrix (angstroms):
                    1          2          3          4          5
     1  C    0.000000
     2  C    1.335090   0.000000
     3  C    2.448244   1.477642   0.000000
     4  C    3.658853   2.449428   1.339633   0.000000
     5  C    4.899097   3.818343   2.450861   1.478013   0.000000
     6  C    6.082623   4.898960   3.662202   2.449534   1.339662
     7  C    7.350287   6.243884   4.902061   3.818748   2.451203
     8  C    8.521338   7.348165   6.085588   4.898744   3.662248
     9  C    9.801630   8.683404   7.353420   6.244161   4.902570
    10  C   10.965141   9.797287   8.524313   7.347878   6.085787
    11  C   12.252868  11.127533   9.804680   8.683433   7.353845
    12  C   13.411421  12.246567  10.968307   9.797175   8.524747
    13  C   14.703836  13.573627  12.255674  11.127305   9.804859
    14  C   15.859218  14.696206  13.414875  12.246834  10.969025
    15  C   17.153907  16.020155  14.705773  13.572660  12.254977
    16  C   18.305538  17.144002  15.860399  14.694643  13.413241
    17  H    1.085211   2.099159   3.438682   4.545244   5.872013
    18  H    1.086087   2.110491   2.674617   4.006719   5.015960
    19  H    2.092140   1.086786   2.228575   2.711941   4.187201
    20  H    2.705552   2.223964   1.087740   2.104524   2.658154
    21  H    3.983712   2.654953   2.103874   1.087768   2.224026
    22  H    5.047170   4.181342   2.706525   2.224621   1.087729
    23  H    6.271259   4.990165   3.987731   2.654675   2.103821
    24  H    7.460954   6.484562   5.049837   4.182411   2.707280
    25  H    8.646773   7.397842   6.274039   4.989109   3.987251
    26  H    9.894469   8.868278   7.464311   6.485653   5.050910
    27  H   11.054013   9.825013   8.649478   7.396845   6.273778
    28  H   12.335413  11.280971   9.897477   8.868693   7.464902
    29  H   13.476778  12.260901  11.057489   9.824875   8.650076
    30  H   14.779277  13.706589  12.337445  11.280319   9.897057
    31  H   15.909294  14.702598  13.481960  12.262614  11.059779
    32  H   17.232539  16.147031  14.788500  13.713100  12.344198
    33  H   18.368714  17.169096  15.936323  14.726711  13.505833
    34  H   19.246399  18.104281  16.798613  15.655523  14.348174
                    6          7          8          9         10
     6  C    0.000000
     7  C    1.477973   0.000000
     8  C    2.449214   1.339678   0.000000
     9  C    3.818611   2.451373   1.477926   0.000000
    10  C    4.898359   3.662360   2.449151   1.339722   0.000000
    11  C    6.243840   4.902660   3.818465   2.451294   1.477871
    12  C    7.347672   6.086059   4.898476   3.662482   2.449330
    13  C    8.682928   7.353689   6.243593   4.902334   3.818382
    14  C    9.797350   8.525225   7.348169   6.086306   4.899032
    15  C   11.126131   9.803824   8.682086   7.352480   6.242982
    16  C   12.245169  10.967003   9.795993   8.522789   7.346857
    17  H    6.993869   8.315632   9.442746  10.762479  11.891778
    18  H    6.298316   7.429422   8.677659   9.862487  11.088648
    19  H    5.051689   6.488215   7.460958   8.868713   9.888915
    20  H    3.990859   4.997702   6.280499   7.411045   8.659470
    21  H    2.703444   4.178855   5.041530   6.478544   7.450127
    22  H    2.104438   2.658574   3.991214   4.998751   6.281360
    23  H    1.087757   2.223734   2.702551   4.177961   5.040217
    24  H    2.224728   1.087731   2.104578   2.659100   3.991751
    25  H    2.654077   2.103783   1.087758   2.223568   2.702242
    26  H    4.182614   2.707571   2.224695   1.087730   2.104656
    27  H    4.988473   3.987282   2.654055   2.103858   1.087755
    28  H    6.485340   5.050847   4.182269   2.707274   2.224545
    29  H    7.396962   6.274470   4.989073   3.987827   2.654587
    30  H    8.867491   7.463951   6.484311   5.049778   4.181596
    31  H    9.826732   8.652261   7.399175   6.276306   4.991107
    32  H   11.286390   9.903351   8.873804   7.470152   6.490899
    33  H   12.286622  11.083057   9.850769   8.674514   7.422571
    34  H   13.207035  11.897441  10.759610   9.446596   8.313750
                   11         12         13         14         15
    11  C    0.000000
    12  C    1.339768   0.000000
    13  C    2.451044   1.477867   0.000000
    14  C    3.662582   2.449705   1.339758   0.000000
    15  C    4.901195   3.817913   2.450152   1.477506   0.000000
    16  C    6.083475   4.897529   3.659188   2.447825   1.335165
    17  H   13.210573  14.341075  15.659155  16.790773  18.107375
    18  H   12.303405  13.514491  14.747958  15.948458  17.193684
    19  H   11.278258  12.324748  13.701487  14.764992  16.131794
    20  H    9.843970  11.070445  12.284502  13.496300  14.727896
    21  H    8.858262   9.878016  11.267397  12.314271  13.690021
    22  H    7.412236   8.660668   9.844877  11.071781  12.284268
    23  H    6.477262   7.448935   8.856870   9.877406  11.265653
    24  H    4.999326   6.282056   7.412409   8.661309   9.843790
    25  H    4.177596   5.040154   6.476994   7.449579   8.856449
    26  H    2.659063   3.991798   4.998755   6.281840   7.410454
    27  H    2.223537   2.702543   4.177849   5.041287   6.477289
    28  H    1.087735   2.104639   2.658523   3.991343   4.996710
    29  H    2.104022   1.087756   2.223666   2.703350   4.178207
    30  H    2.706611   2.224387   1.087726   2.104428   2.657015
    31  H    3.989104   2.655915   2.104441   1.087781   2.223444
    32  H    5.056273   4.188169   2.713240   2.228547   1.086730
    33  H    6.296908   5.012974   4.006358   2.673960   2.110573
    34  H    6.995967   5.871096   4.546044   3.438409   2.099330
                   16         17         18         19         20
    16  C    0.000000
    17  H   19.238584   0.000000
    18  H   18.384422   1.871744   0.000000
    19  H   17.206281   2.406121   3.067289   0.000000
    20  H   15.927221   3.787596   2.473370   3.177000   0.000000
    21  H   14.753371   4.684490   4.571508   2.457524   3.070360
    22  H   13.494497   6.095314   4.926524   4.775012   2.453164
    23  H   12.312730   7.074098   6.660417   4.904815   4.558905
    24  H   11.068934   8.484917   7.380624   6.893811   4.907276
    25  H    9.877349   9.492690   8.934038   7.350791   6.643809
    26  H    8.657176  10.902797   9.835428   9.179497   7.362098
    27  H    7.450319  11.922963  11.281691   9.796447   8.916405
    28  H    6.276897  13.332905  12.289915  11.532636   9.816610
    29  H    5.042222  14.359809  13.666022  12.242811  11.264336
    30  H    3.985707  15.768811  14.743316  13.918413  12.270039
    31  H    2.704233  16.801747  16.071883  14.691104  13.649935
    32  H    2.092341  18.215956  17.203737  16.330274  14.730491
    33  H    1.086148  19.268213  18.511159  17.162654  16.076483
    34  H    1.085182  20.194290  19.292548  18.195770  16.827131
                   21         22         23         24         25
    21  H    0.000000
    22  H    3.174445   0.000000
    23  H    2.447292   3.070243   0.000000
    24  H    4.768537   2.454115   3.174330   0.000000
    25  H    4.893272   4.558755   2.445984   3.070307   0.000000
    26  H    6.885639   4.908945   4.768036   2.454836   3.174212
    27  H    7.338938   6.644191   4.891661   4.559162   2.445683
    28  H    9.169886   7.363472   6.884426   4.909375   4.767533
    29  H    9.785318   8.917731   7.338056   6.645254   4.892091
    30  H   11.521682   9.816920   9.167854   7.362840   6.883429
    31  H   12.233629  11.267201   9.786387   8.920021   7.340436
    32  H   13.914466  12.277394  11.526946   9.823331   9.174222
    33  H   14.705189  13.673210  12.257956  11.289064   9.812009
    34  H   15.747773  14.383567  13.313778  11.942372  10.887955
                   26         27         28         29         30
    26  H    0.000000
    27  H    3.070392   0.000000
    28  H    2.454545   3.174113   0.000000
    29  H    4.559582   2.446414   3.070474   0.000000
    30  H    4.908020   4.767229   2.453479   3.174091   0.000000
    31  H    6.646563   4.894768   4.560229   2.448357   3.070627
    32  H    7.368525   6.890297   4.913991   4.773445   2.460514
    33  H    8.939715   7.366340   6.663651   4.919928   4.572680
    34  H    9.506072   8.475478   7.081432   6.090796   4.687273
                   31         32         33         34
    31  H    0.000000
    32  H    3.176672   0.000000
    33  H    2.471573   3.067456   0.000000
    34  H    3.786297   2.406637   1.871689   0.000000
 Stoichiometry    C16H18
 Framework group  C1[X(C16H18)]
 Deg. of freedom    96
 Full point group                 C1      NOp   1
 Largest Abelian subgroup         C1      NOp   1
 Largest concise Abelian subgroup C1      NOp   1
                         Standard orientation:                         
 ---------------------------------------------------------------------
 Center     Atomic      Atomic             Coordinates (Angstroms)
 Number     Number       Type             X           Y           Z
 ---------------------------------------------------------------------
      1          6           0       -9.150777    0.249452    0.000020
      2          6           0       -7.997038   -0.422375    0.000016
      3          6           0       -6.702882    0.290778    0.000009
      4          6           0       -5.547854   -0.387843   -0.000004
      5          6           0       -4.252239    0.323426   -0.000004
      6          6           0       -3.098508   -0.357457   -0.000013
      7          6           0       -1.801186    0.350612   -0.000016
      8          6           0       -0.649410   -0.333602   -0.000016
      9          6           0        0.650107    0.370331   -0.000013
     10          6           0        1.799689   -0.317649   -0.000013
     11          6           0        3.101372    0.382154   -0.000011
     12          6           0        4.249005   -0.309163   -0.000010
     13          6           0        5.552411    0.387416    0.000002
     14          6           0        6.698708   -0.306094    0.000007
     15          6           0        8.002563    0.388877    0.000012
     16          6           0        9.146524   -0.299613    0.000022
     17          1           0      -10.092058   -0.290615    0.000023
     18          1           0       -9.165045    1.335445    0.000024
     19          1           0       -8.017204   -1.508974    0.000009
     20          1           0       -6.692050    1.378464    0.000018
     21          1           0       -5.559908   -1.475545   -0.000006
     22          1           0       -4.239102    1.411075   -0.000002
     23          1           0       -3.112804   -1.445119   -0.000015
     24          1           0       -1.785137    1.438225   -0.000007
     25          1           0       -0.666937   -1.421219   -0.000014
     26          1           0        0.669620    1.457885   -0.000013
     27          1           0        1.778693   -1.405201   -0.000007
     28          1           0        3.124137    1.469650   -0.000009
     29          1           0        4.225092   -1.396656   -0.000002
     30          1           0        5.577611    1.474849   -0.000004
     31          1           0        6.673447   -1.393581    0.000014
     32          1           0        8.038125    1.475025    0.000004
     33          1           0        9.145007   -1.385761    0.000029
     34          1           0       10.095608    0.226560    0.000029
 ---------------------------------------------------------------------
 Rotational constants (GHZ):      9.0246057      0.0739561      0.0733549
 Standard basis: STO-3G (5D, 7F)
 There are    98 symmetry adapted cartesian basis functions of A   symmetry.
 There are    98 symmetry adapted basis functions of A   symmetry.
    98 basis functions,   294 primitive gaussians,    98 cartesian basis functions
    57 alpha electrons       57 beta electrons
       nuclear repulsion energy       799.6834926679 Hartrees.
 NAtoms=   34 NActive=   34 NUniq=   34 SFac= 1.00D+00 NAtFMM=   60 NAOKFM=F Big=F
 Integral buffers will be    131072 words long.
 Raffenetti 2 integral format.
 Two-electron integral symmetry is turned on.
 One-electron integrals computed using PRISM.
 NBasis=    98 RedAO= T EigKep=  1.83D-01  NBF=    98
 NBsUse=    98 1.00D-06 EigRej= -1.00D+00 NBFU=    98
 ExpMin= 1.69D-01 ExpMax= 7.16D+01 ExpMxC= 7.16D+01 IAcc=1 IRadAn=         1 AccDes= 0.00D+00
 Harris functional with IExCor=  402 and IRadAn=       1 diagonalized for initial guess.
 HarFok:  IExCor=  402 AccDes= 0.00D+00 IRadAn=         1 IDoV= 1 UseB2=F ITyADJ=14
 ICtDFT=  3500011 ScaDFX=  1.000000  1.000000  1.000000  1.000000
 FoFCou: FMM=F IPFlag=           0 FMFlag=      100000 FMFlg1=           0
         NFxFlg=           0 DoJE=T BraDBF=F KetDBF=T FulRan=T
         wScrn=  0.000000 ICntrl=     500 IOpCl=  0 I1Cent=   200000004 NGrid=           0
         NMat0=    1 NMatS0=      1 NMatT0=    0 NMatD0=    1 NMtDS0=    0 NMtDT0=    0
 Petite list used in FoFCou.
 Keep R1 ints in memory in canonical form, NReq=12738810.
 Requested convergence on RMS density matrix=1.00D-08 within 128 cycles.
 Requested convergence on MAX density matrix=1.00D-06.
 Requested convergence on             energy=1.00D-06.
 No special actions if energy rises.
 Integral accuracy reduced to 1.0D-05 until final iterations.
 Initial convergence to 1.0D-05 achieved.  Increase integral accuracy.
 SCF Done:  E(RB3LYP) =  -612.798849486     A.U. after   13 cycles
            NFock= 13  Conv=0.59D-08     -V/T= 2.0159

 **********************************************************************

            Population analysis using the SCF density.

 **********************************************************************

 Orbital symmetries:
       Occupied  (A) (A) (A) (A) (A) (A) (A) (A) (A) (A) (A) (A)
                 (A) (A) (A) (A) (A) (A) (A) (A) (A) (A) (A) (A)
                 (A) (A) (A) (A) (A) (A) (A) (A) (A) (A) (A) (A)
                 (A) (A) (A) (A) (A) (A) (A) (A) (A) (A) (A) (A)
                 (A) (A) (A) (A) (A) (A) (A) (A) (A)
       Virtual   (A) (A) (A) (A) (A) (A) (A) (A) (A) (A) (A) (A)
                 (A) (A) (A) (A) (A) (A) (A) (A) (A) (A) (A) (A)
                 (A) (A) (A) (A) (A) (A) (A) (A) (A) (A) (A) (A)
                 (A) (A) (A) (A) (A)
 The electronic state is 1-A.
 Alpha  occ. eigenvalues --  -10.00522 -10.00510 -10.00383 -10.00374 -10.00369
 Alpha  occ. eigenvalues --  -10.00360 -10.00350 -10.00295 -10.00286 -10.00279
 Alpha  occ. eigenvalues --  -10.00271 -10.00262 -10.00253 -10.00244  -9.98756
 Alpha  occ. eigenvalues --   -9.98741  -0.78657  -0.77938  -0.76759  -0.75142
 Alpha  occ. eigenvalues --   -0.73119  -0.70750  -0.68158  -0.65723  -0.58625
 Alpha  occ. eigenvalues --   -0.55911  -0.53473  -0.53008  -0.52626  -0.51949
 Alpha  occ. eigenvalues --   -0.50810  -0.50595  -0.44286  -0.44282  -0.42730
 Alpha  occ. eigenvalues --   -0.41802  -0.40909  -0.38396  -0.37561  -0.36204
 Alpha  occ. eigenvalues --   -0.35008  -0.34568  -0.33475  -0.33339  -0.33042
 Alpha  occ. eigenvalues --   -0.32460  -0.31488  -0.30365  -0.29806  -0.29367
 Alpha  occ. eigenvalues --   -0.28142  -0.27718  -0.25438  -0.22564  -0.19181
 Alpha  occ. eigenvalues --   -0.15497  -0.12126
 Alpha virt. eigenvalues --    0.01109   0.04825   0.09137   0.13319   0.17027
 Alpha virt. eigenvalues --    0.20056   0.22279   0.23630   0.32388   0.34361
 Alpha virt. eigenvalues --    0.36931   0.39413   0.40968   0.41214   0.41385
 Alpha virt. eigenvalues --    0.41677   0.41699   0.41840   0.42076   0.42156
 Alpha virt. eigenvalues --    0.43176   0.43631   0.44137   0.45061   0.45731
 Alpha virt. eigenvalues --    0.55231   0.55481   0.57050   0.59018   0.62039
 Alpha virt. eigenvalues --    0.62333   0.65383   0.66105   0.68847   0.69434
 Alpha virt. eigenvalues --    0.71596   0.71998   0.74864   0.77482   0.79524
 Alpha virt. eigenvalues --    0.80806
          Condensed to atoms (all electrons):
               1          2          3          4          5          6
     1  C    4.856748   0.583381  -0.031663   0.000871  -0.000009   0.000000
     2  C    0.583381   4.793083   0.423628  -0.031187   0.001024  -0.000009
     3  C   -0.031663   0.423628   4.816456   0.568084  -0.031121   0.000877
     4  C    0.000871  -0.031187   0.568084   4.812658   0.428025  -0.031214
     5  C   -0.000009   0.001024  -0.031121   0.428025   4.815232   0.565606
     6  C    0.000000  -0.000009   0.000877  -0.031214   0.565606   4.814237
     7  C    0.000000   0.000000  -0.000009   0.001017  -0.031096   0.429086
     8  C    0.000000   0.000000   0.000000  -0.000009   0.000881  -0.031252
     9  C    0.000000   0.000000   0.000000   0.000000  -0.000009   0.001016
    10  C    0.000000   0.000000   0.000000   0.000000   0.000000  -0.000009
    11  C    0.000000   0.000000   0.000000   0.000000   0.000000   0.000000
    12  C    0.000000   0.000000   0.000000   0.000000   0.000000   0.000000
    13  C    0.000000   0.000000   0.000000   0.000000   0.000000   0.000000
    14  C    0.000000   0.000000   0.000000   0.000000   0.000000   0.000000
    15  C    0.000000   0.000000   0.000000   0.000000   0.000000   0.000000
    16  C    0.000000   0.000000   0.000000   0.000000   0.000000   0.000000
    17  H    0.390699  -0.026105   0.001663  -0.000027   0.000000   0.000000
    18  H    0.390303  -0.025520  -0.005363   0.000047  -0.000001   0.000000
    19  H   -0.028225   0.390267  -0.022685  -0.003345   0.000008   0.000000
    20  H   -0.003320  -0.022720   0.389861  -0.027462  -0.005218   0.000046
    21  H    0.000047  -0.005258  -0.027537   0.389786  -0.022731  -0.003414
    22  H    0.000000   0.000008  -0.003377  -0.022675   0.389807  -0.027500
    23  H    0.000000  -0.000001   0.000047  -0.005273  -0.027563   0.389816
    24  H    0.000000   0.000000   0.000000   0.000008  -0.003370  -0.022667
    25  H    0.000000   0.000000   0.000000  -0.000001   0.000047  -0.005282
    26  H    0.000000   0.000000   0.000000   0.000000   0.000000   0.000008
    27  H    0.000000   0.000000   0.000000   0.000000   0.000000  -0.000001
    28  H    0.000000   0.000000   0.000000   0.000000   0.000000   0.000000
    29  H    0.000000   0.000000   0.000000   0.000000   0.000000   0.000000
    30  H    0.000000   0.000000   0.000000   0.000000   0.000000   0.000000
    31  H    0.000000   0.000000   0.000000   0.000000   0.000000   0.000000
    32  H    0.000000   0.000000   0.000000   0.000000   0.000000   0.000000
    33  H    0.000000   0.000000   0.000000   0.000000   0.000000   0.000000
    34  H    0.000000   0.000000   0.000000   0.000000   0.000000   0.000000
               7          8          9         10         11         12
     1  C    0.000000   0.000000   0.000000   0.000000   0.000000   0.000000
     2  C    0.000000   0.000000   0.000000   0.000000   0.000000   0.000000
     3  C   -0.000009   0.000000   0.000000   0.000000   0.000000   0.000000
     4  C    0.001017  -0.000009   0.000000   0.000000   0.000000   0.000000
     5  C   -0.031096   0.000881  -0.000009   0.000000   0.000000   0.000000
     6  C    0.429086  -0.031252   0.001016  -0.000009   0.000000   0.000000
     7  C    4.814894   0.564958  -0.031080   0.000882  -0.000009   0.000000
     8  C    0.564958   4.814675   0.429323  -0.031261   0.001016  -0.000009
     9  C   -0.031080   0.429323   4.814667   0.564938  -0.031082   0.000881
    10  C    0.000882  -0.031261   0.564938   4.814877   0.429122  -0.031247
    11  C   -0.000009   0.001016  -0.031082   0.429122   4.814205   0.565557
    12  C    0.000000  -0.000009   0.000881  -0.031247   0.565557   4.815194
    13  C    0.000000   0.000000  -0.000009   0.001017  -0.031091   0.428075
    14  C    0.000000   0.000000   0.000000  -0.000009   0.000877  -0.031213
    15  C    0.000000   0.000000   0.000000   0.000000  -0.000009   0.001025
    16  C    0.000000   0.000000   0.000000   0.000000   0.000000  -0.000009
    17  H    0.000000   0.000000   0.000000   0.000000   0.000000   0.000000
    18  H    0.000000   0.000000   0.000000   0.000000   0.000000   0.000000
    19  H    0.000000   0.000000   0.000000   0.000000   0.000000   0.000000
    20  H   -0.000001   0.000000   0.000000   0.000000   0.000000   0.000000
    21  H    0.000008   0.000000   0.000000   0.000000   0.000000   0.000000
    22  H   -0.005214   0.000046  -0.000001   0.000000   0.000000   0.000000
    23  H   -0.022737  -0.003424   0.000009   0.000000   0.000000   0.000000
    24  H    0.389788  -0.027497  -0.005206   0.000046  -0.000001   0.000000
    25  H   -0.027567   0.389830  -0.022743  -0.003428   0.000009   0.000000
    26  H   -0.003366  -0.022669   0.389781  -0.027494  -0.005206   0.000046
    27  H    0.000047  -0.005282  -0.027559   0.389836  -0.022744  -0.003425
    28  H    0.000000   0.000008  -0.003370  -0.022681   0.389776  -0.027495
    29  H    0.000000  -0.000001   0.000047  -0.005273  -0.027538   0.389839
    30  H    0.000000   0.000000   0.000000   0.000008  -0.003377  -0.022703
    31  H    0.000000   0.000000   0.000000  -0.000001   0.000047  -0.005250
    32  H    0.000000   0.000000   0.000000   0.000000   0.000000   0.000008
    33  H    0.000000   0.000000   0.000000   0.000000   0.000000  -0.000001
    34  H    0.000000   0.000000   0.000000   0.000000   0.000000   0.000000
              13         14         15         16         17         18
     1  C    0.000000   0.000000   0.000000   0.000000   0.390699   0.390303
     2  C    0.000000   0.000000   0.000000   0.000000  -0.026105  -0.025520
     3  C    0.000000   0.000000   0.000000   0.000000   0.001663  -0.005363
     4  C    0.000000   0.000000   0.000000   0.000000  -0.000027   0.000047
     5  C    0.000000   0.000000   0.000000   0.000000   0.000000  -0.000001
     6  C    0.000000   0.000000   0.000000   0.000000   0.000000   0.000000
     7  C    0.000000   0.000000   0.000000   0.000000   0.000000   0.000000
     8  C    0.000000   0.000000   0.000000   0.000000   0.000000   0.000000
     9  C   -0.000009   0.000000   0.000000   0.000000   0.000000   0.000000
    10  C    0.001017  -0.000009   0.000000   0.000000   0.000000   0.000000
    11  C   -0.031091   0.000877  -0.000009   0.000000   0.000000   0.000000
    12  C    0.428075  -0.031213   0.001025  -0.000009   0.000000   0.000000
    13  C    4.812618   0.568029  -0.031129   0.000871   0.000000   0.000000
    14  C    0.568029   4.816407   0.423670  -0.031693   0.000000   0.000000
    15  C   -0.031129   0.423670   4.793045   0.583349   0.000000   0.000000
    16  C    0.000871  -0.031693   0.583349   4.856713   0.000000   0.000000
    17  H    0.000000   0.000000   0.000000   0.000000   0.583565  -0.022572
    18  H    0.000000   0.000000   0.000000   0.000000  -0.022572   0.582068
    19  H    0.000000   0.000000   0.000000   0.000000  -0.005237   0.002149
    20  H    0.000000   0.000000   0.000000   0.000000   0.000011   0.000870
    21  H    0.000000   0.000000   0.000000   0.000000  -0.000002   0.000002
    22  H    0.000000   0.000000   0.000000   0.000000   0.000000   0.000000
    23  H    0.000000   0.000000   0.000000   0.000000   0.000000   0.000000
    24  H    0.000000   0.000000   0.000000   0.000000   0.000000   0.000000
    25  H    0.000000   0.000000   0.000000   0.000000   0.000000   0.000000
    26  H   -0.000001   0.000000   0.000000   0.000000   0.000000   0.000000
    27  H    0.000009   0.000000   0.000000   0.000000   0.000000   0.000000
    28  H   -0.005214   0.000046  -0.000001   0.000000   0.000000   0.000000
    29  H   -0.022736  -0.003414   0.000008   0.000000   0.000000   0.000000
    30  H    0.389769  -0.027491  -0.005225   0.000046   0.000000   0.000000
    31  H   -0.027473   0.389871  -0.022753  -0.003336   0.000000   0.000000
    32  H   -0.003331  -0.022682   0.390270  -0.028206   0.000000   0.000000
    33  H    0.000047  -0.005372  -0.025518   0.390293   0.000000   0.000000
    34  H   -0.000027   0.001664  -0.026096   0.390697   0.000000   0.000000
              19         20         21         22         23         24
     1  C   -0.028225  -0.003320   0.000047   0.000000   0.000000   0.000000
     2  C    0.390267  -0.022720  -0.005258   0.000008  -0.000001   0.000000
     3  C   -0.022685   0.389861  -0.027537  -0.003377   0.000047   0.000000
     4  C   -0.003345  -0.027462   0.389786  -0.022675  -0.005273   0.000008
     5  C    0.000008  -0.005218  -0.022731   0.389807  -0.027563  -0.003370
     6  C    0.000000   0.000046  -0.003414  -0.027500   0.389816  -0.022667
     7  C    0.000000  -0.000001   0.000008  -0.005214  -0.022737   0.389788
     8  C    0.000000   0.000000   0.000000   0.000046  -0.003424  -0.027497
     9  C    0.000000   0.000000   0.000000  -0.000001   0.000009  -0.005206
    10  C    0.000000   0.000000   0.000000   0.000000   0.000000   0.000046
    11  C    0.000000   0.000000   0.000000   0.000000   0.000000  -0.000001
    12  C    0.000000   0.000000   0.000000   0.000000   0.000000   0.000000
    13  C    0.000000   0.000000   0.000000   0.000000   0.000000   0.000000
    14  C    0.000000   0.000000   0.000000   0.000000   0.000000   0.000000
    15  C    0.000000   0.000000   0.000000   0.000000   0.000000   0.000000
    16  C    0.000000   0.000000   0.000000   0.000000   0.000000   0.000000
    17  H   -0.005237   0.000011  -0.000002   0.000000   0.000000   0.000000
    18  H    0.002149   0.000870   0.000002   0.000000   0.000000   0.000000
    19  H    0.584275   0.001377   0.000850  -0.000001   0.000000   0.000000
    20  H    0.001377   0.583340   0.002084   0.000848   0.000001   0.000000
    21  H    0.000850   0.002084   0.584194   0.001376   0.000855  -0.000001
    22  H   -0.000001   0.000848   0.001376   0.584000   0.002087   0.000848
    23  H    0.000000   0.000001   0.000855   0.002087   0.584389   0.001376
    24  H    0.000000   0.000000  -0.000001   0.000848   0.001376   0.584064
    25  H    0.000000   0.000000   0.000000   0.000001   0.000855   0.002087
    26  H    0.000000   0.000000   0.000000   0.000000  -0.000001   0.000848
    27  H    0.000000   0.000000   0.000000   0.000000   0.000000   0.000001
    28  H    0.000000   0.000000   0.000000   0.000000   0.000000   0.000000
    29  H    0.000000   0.000000   0.000000   0.000000   0.000000   0.000000
    30  H    0.000000   0.000000   0.000000   0.000000   0.000000   0.000000
    31  H    0.000000   0.000000   0.000000   0.000000   0.000000   0.000000
    32  H    0.000000   0.000000   0.000000   0.000000   0.000000   0.000000
    33  H    0.000000   0.000000   0.000000   0.000000   0.000000   0.000000
    34  H    0.000000   0.000000   0.000000   0.000000   0.000000   0.000000
              25         26         27         28         29         30
     1  C    0.000000   0.000000   0.000000   0.000000   0.000000   0.000000
     2  C    0.000000   0.000000   0.000000   0.000000   0.000000   0.000000
     3  C    0.000000   0.000000   0.000000   0.000000   0.000000   0.000000
     4  C   -0.000001   0.000000   0.000000   0.000000   0.000000   0.000000
     5  C    0.000047   0.000000   0.000000   0.000000   0.000000   0.000000
     6  C   -0.005282   0.000008  -0.000001   0.000000   0.000000   0.000000
     7  C   -0.027567  -0.003366   0.000047   0.000000   0.000000   0.000000
     8  C    0.389830  -0.022669  -0.005282   0.000008  -0.000001   0.000000
     9  C   -0.022743   0.389781  -0.027559  -0.003370   0.000047   0.000000
    10  C   -0.003428  -0.027494   0.389836  -0.022681  -0.005273   0.000008
    11  C    0.000009  -0.005206  -0.022744   0.389776  -0.027538  -0.003377
    12  C    0.000000   0.000046  -0.003425  -0.027495   0.389839  -0.022703
    13  C    0.000000  -0.000001   0.000009  -0.005214  -0.022736   0.389769
    14  C    0.000000   0.000000   0.000000   0.000046  -0.003414  -0.027491
    15  C    0.000000   0.000000   0.000000  -0.000001   0.000008  -0.005225
    16  C    0.000000   0.000000   0.000000   0.000000   0.000000   0.000046
    17  H    0.000000   0.000000   0.000000   0.000000   0.000000   0.000000
    18  H    0.000000   0.000000   0.000000   0.000000   0.000000   0.000000
    19  H    0.000000   0.000000   0.000000   0.000000   0.000000   0.000000
    20  H    0.000000   0.000000   0.000000   0.000000   0.000000   0.000000
    21  H    0.000000   0.000000   0.000000   0.000000   0.000000   0.000000
    22  H    0.000001   0.000000   0.000000   0.000000   0.000000   0.000000
    23  H    0.000855  -0.000001   0.000000   0.000000   0.000000   0.000000
    24  H    0.002087   0.000848   0.000001   0.000000   0.000000   0.000000
    25  H    0.584411   0.001376   0.000855  -0.000001   0.000000   0.000000
    26  H    0.001376   0.584079   0.002086   0.000849   0.000001   0.000000
    27  H    0.000855   0.002086   0.584360   0.001377   0.000854  -0.000001
    28  H   -0.000001   0.000849   0.001377   0.584096   0.002086   0.000850
    29  H    0.000000   0.000001   0.000854   0.002086   0.584201   0.001377
    30  H    0.000000   0.000000  -0.000001   0.000850   0.001377   0.583987
    31  H    0.000000   0.000000   0.000000   0.000001   0.000852   0.002082
    32  H    0.000000   0.000000   0.000000   0.000000  -0.000001   0.000847
    33  H    0.000000   0.000000   0.000000   0.000000   0.000000   0.000002
    34  H    0.000000   0.000000   0.000000   0.000000   0.000000  -0.000002
              31         32         33         34
     1  C    0.000000   0.000000   0.000000   0.000000
     2  C    0.000000   0.000000   0.000000   0.000000
     3  C    0.000000   0.000000   0.000000   0.000000
     4  C    0.000000   0.000000   0.000000   0.000000
     5  C    0.000000   0.000000   0.000000   0.000000
     6  C    0.000000   0.000000   0.000000   0.000000
     7  C    0.000000   0.000000   0.000000   0.000000
     8  C    0.000000   0.000000   0.000000   0.000000
     9  C    0.000000   0.000000   0.000000   0.000000
    10  C   -0.000001   0.000000   0.000000   0.000000
    11  C    0.000047   0.000000   0.000000   0.000000
    12  C   -0.005250   0.000008  -0.000001   0.000000
    13  C   -0.027473  -0.003331   0.000047  -0.000027
    14  C    0.389871  -0.022682  -0.005372   0.001664
    15  C   -0.022753   0.390270  -0.025518  -0.026096
    16  C   -0.003336  -0.028206   0.390293   0.390697
    17  H    0.000000   0.000000   0.000000   0.000000
    18  H    0.000000   0.000000   0.000000   0.000000
    19  H    0.000000   0.000000   0.000000   0.000000
    20  H    0.000000   0.000000   0.000000   0.000000
    21  H    0.000000   0.000000   0.000000   0.000000
    22  H    0.000000   0.000000   0.000000   0.000000
    23  H    0.000000   0.000000   0.000000   0.000000
    24  H    0.000000   0.000000   0.000000   0.000000
    25  H    0.000000   0.000000   0.000000   0.000000
    26  H    0.000000   0.000000   0.000000   0.000000
    27  H    0.000000   0.000000   0.000000   0.000000
    28  H    0.000001   0.000000   0.000000   0.000000
    29  H    0.000852  -0.000001   0.000000   0.000000
    30  H    0.002082   0.000847   0.000002  -0.000002
    31  H    0.583422   0.001379   0.000872   0.000011
    32  H    0.001379   0.584168   0.002148  -0.005228
    33  H    0.000872   0.002148   0.582066  -0.022576
    34  H    0.000011  -0.005228  -0.022576   0.583508
 Mulliken charges:
               1
     1  C   -0.158832
     2  C   -0.080590
     3  C   -0.078862
     4  C   -0.079303
     5  C   -0.079512
     6  C   -0.079342
     7  C   -0.079602
     8  C   -0.079332
     9  C   -0.079601
    10  C   -0.079321
    11  C   -0.079550
    12  C   -0.079271
    13  C   -0.079425
    14  C   -0.078690
    15  C   -0.080636
    16  C   -0.158726
    17  H    0.078005
    18  H    0.078017
    19  H    0.080566
    20  H    0.080283
    21  H    0.079741
    22  H    0.079747
    23  H    0.079566
    24  H    0.079676
    25  H    0.079552
    26  H    0.079663
    27  H    0.079588
    28  H    0.079674
    29  H    0.079698
    30  H    0.079830
    31  H    0.080276
    32  H    0.080628
    33  H    0.078039
    34  H    0.078048
 Sum of Mulliken charges =   0.00000
 Mulliken charges with hydrogens summed into heavy atoms:
               1
     1  C   -0.002810
     2  C   -0.000024
     3  C    0.001420
     4  C    0.000438
     5  C    0.000235
     6  C    0.000223
     7  C    0.000074
     8  C    0.000220
     9  C    0.000062
    10  C    0.000266
    11  C    0.000125
    12  C    0.000427
    13  C    0.000406
    14  C    0.001586
    15  C   -0.000008
    16  C   -0.002639
 Electronic spatial extent (au):  <R**2>=          13819.8073
 Charge=              0.0000 electrons
 Dipole moment (field-independent basis, Debye):
    X=              0.0176    Y=             -0.0008    Z=              0.0000  Tot=              0.0176
 Quadrupole moment (field-independent basis, Debye-Ang):
   XX=            -85.9412   YY=            -80.9390   ZZ=            -95.4076
   XY=              0.6721   XZ=              0.0000   YZ=              0.0000
 Traceless Quadrupole moment (field-independent basis, Debye-Ang):
   XX=              1.4881   YY=              6.4902   ZZ=             -7.9784
   XY=              0.6721   XZ=              0.0000   YZ=              0.0000
 Octapole moment (field-independent basis, Debye-Ang**2):
  XXX=              1.2052  YYY=              0.0337  ZZZ=              0.0000  XYY=             -0.0509
  XXY=              0.1946  XXZ=              0.0008  XZZ=              0.0079  YZZ=              0.0016
  YYZ=              0.0000  XYZ=             -0.0003
 Hexadecapole moment (field-independent basis, Debye-Ang**3):
 XXXX=         -16988.9700 YYYY=           -239.9202 ZZZZ=            -77.3506 XXXY=             98.9733
 XXXZ=              0.0028 YYYX=             -2.6071 YYYZ=              0.0000 ZZZX=              0.0000
 ZZZY=              0.0000 XXYY=          -2751.7517 XXZZ=          -3185.5493 YYZZ=            -61.1358
 XXYZ=             -0.0002 YYXZ=              0.0000 ZZXY=             -0.1677
 N-N= 7.996834926679D+02 E-N=-3.017611459896D+03  KE= 6.032348343501D+02
 Calling FoFJK, ICntrl=      2127 FMM=F ISym2X=0 I1Cent= 0 IOpClX= 0 NMat=1 NMatS=1 NMatT=0.
 ***** Axes restored to original set *****
 -------------------------------------------------------------------
 Center     Atomic                   Forces (Hartrees/Bohr)
 Number     Number              X              Y              Z
 -------------------------------------------------------------------
      1        6          -0.007922076   -0.001655782    0.001114823
      2        6           0.013704955   -0.007633846    0.010155014
      3        6          -0.024628497   -0.000530443   -0.001847018
      4        6           0.029624764    0.001425934    0.001313075
      5        6          -0.030669168   -0.003150002    0.000567044
      6        6           0.031825160    0.003302349   -0.000626161
      7        6          -0.032058343   -0.003778290    0.001149595
      8        6           0.032338469    0.003840073   -0.001194431
      9        6          -0.032269702   -0.003855832    0.001219422
     10        6           0.032064428    0.003858545   -0.001243287
     11        6          -0.031714418   -0.003422884    0.000776433
     12        6           0.030633071    0.003313145   -0.000759962
     13        6          -0.029555326   -0.001608195   -0.001095139
     14        6           0.024595557    0.000700379    0.001646367
     15        6          -0.013839843    0.007529659   -0.010046837
     16        6           0.007849924    0.001708872   -0.001184422
     17        1          -0.008230957   -0.004913424    0.004834296
     18        1           0.001437491   -0.005517141    0.006493538
     19        1          -0.000887023    0.007575055   -0.008807672
     20        1           0.001551832   -0.005992694    0.007052487
     21        1          -0.001740726    0.005985103   -0.007062037
     22        1           0.001712100   -0.005959792    0.007030302
     23        1          -0.001745244    0.005964652   -0.007039110
     24        1           0.001752788   -0.005953957    0.007028493
     25        1          -0.001772275    0.005948619   -0.007023157
     26        1           0.001797586   -0.005948361    0.007025978
     27        1          -0.001804522    0.005937571   -0.007013647
     28        1           0.001838858   -0.005945907    0.007027366
     29        1          -0.001820963    0.005925842   -0.007001644
     30        1           0.001895013   -0.005966923    0.007056779
     31        1          -0.001682349    0.005946968   -0.007012404
     32        1           0.001100162   -0.007571106    0.008823944
     33        1          -0.001542089    0.005465456   -0.006444599
     34        1           0.008161365    0.004976359   -0.004913427
 -------------------------------------------------------------------
 Cartesian Forces:  Max     0.032338469 RMS     0.011575133

 GradGradGradGradGradGradGradGradGradGradGradGradGradGradGradGradGradGrad
 Berny optimization.
 FormGI is forming the generalized inverse of G from B-inverse, IUseBI=4.
 Internal  Forces:  Max     0.037692119 RMS     0.010226116
 Search for a local minimum.
 Step number   1 out of a maximum of  151
 All quantities printed in internal units (Hartrees-Bohrs-Radians)
 Mixed Optimization -- RFO/linear search
 Second derivative matrix not updated -- first step.
 ITU=  0
     Eigenvalues ---    0.01057   0.01057   0.01058   0.01059   0.01059
     Eigenvalues ---    0.01062   0.01064   0.01975   0.01976   0.01976
     Eigenvalues ---    0.01976   0.01976   0.01976   0.01976   0.01976
     Eigenvalues ---    0.01976   0.01976   0.01978   0.01979   0.01997
     Eigenvalues ---    0.01998   0.02886   0.02886   0.02886   0.02887
     Eigenvalues ---    0.02887   0.02887   0.02946   0.02946   0.02947
     Eigenvalues ---    0.02947   0.16000   0.16000   0.16000   0.16000
     Eigenvalues ---    0.16000   0.16000   0.16000   0.16000   0.16000
     Eigenvalues ---    0.16000   0.16000   0.16000   0.16000   0.16000
     Eigenvalues ---    0.16000   0.16000   0.16000   0.16000   0.22000
     Eigenvalues ---    0.22000   0.22000   0.22000   0.22000   0.22000
     Eigenvalues ---    0.22000   0.22000   0.22000   0.22000   0.22000
     Eigenvalues ---    0.22000   0.22000   0.22000   0.34798   0.34803
     Eigenvalues ---    0.34808   0.34814   0.34815   0.34841   0.34857
     Eigenvalues ---    0.35070   0.35072   0.35073   0.35073   0.35073
     Eigenvalues ---    0.35073   0.35075   0.35076   0.35076   0.35076
     Eigenvalues ---    0.35076   0.35077   0.35187   0.35193   0.35262
     Eigenvalues ---    0.35269   0.35372   0.35375   0.57257   0.57259
     Eigenvalues ---    0.57267   0.57277   0.57281   0.57287   0.58302
     Eigenvalues ---    0.58319
 RFO step:  Lambda=-3.65702267D-02 EMin= 1.05679406D-02
 Linear search not attempted -- first point.
 Maximum step size (   0.300) exceeded in Quadratic search.
    -- Step size scaled by   0.906
 Iteration  1 RMS(Cart)=  0.13164286 RMS(Int)=  0.00047349
 Iteration  2 RMS(Cart)=  0.00080945 RMS(Int)=  0.00000010
 Iteration  3 RMS(Cart)=  0.00000061 RMS(Int)=  0.00000002
 Variable       Old X    -DE/DX   Delta X   Delta X   Delta X     New X
                                 (Linear)    (Quad)   (Total)
    R1        2.52295   0.02176   0.00000   0.03179   0.03179   2.55475
    R2        2.05075   0.00897   0.00000   0.02082   0.02082   2.07157
    R3        2.05241   0.00777   0.00000   0.01807   0.01807   2.07048
    R4        2.79234   0.00428   0.00000   0.01006   0.01006   2.80240
    R5        2.05373   0.00977   0.00000   0.02278   0.02278   2.07651
    R6        2.53154   0.03430   0.00000   0.05097   0.05097   2.58251
    R7        2.05553   0.00833   0.00000   0.01949   0.01949   2.07502
    R8        2.79304  -0.00060   0.00000  -0.00141  -0.00141   2.79163
    R9        2.05558   0.00845   0.00000   0.01975   0.01975   2.07533
   R10        2.53159   0.03700   0.00000   0.05499   0.05499   2.58659
   R11        2.05551   0.00839   0.00000   0.01962   0.01962   2.07513
   R12        2.79296  -0.00169   0.00000  -0.00398  -0.00398   2.78898
   R13        2.05556   0.00841   0.00000   0.01968   0.01968   2.07524
   R14        2.53163   0.03769   0.00000   0.05602   0.05602   2.58765
   R15        2.05551   0.00840   0.00000   0.01964   0.01964   2.07515
   R16        2.79288  -0.00190   0.00000  -0.00448  -0.00448   2.78839
   R17        2.05556   0.00840   0.00000   0.01964   0.01964   2.07521
   R18        2.53171   0.03764   0.00000   0.05596   0.05596   2.58767
   R19        2.05551   0.00841   0.00000   0.01966   0.01966   2.07517
   R20        2.79277  -0.00164   0.00000  -0.00386  -0.00386   2.78891
   R21        2.05556   0.00840   0.00000   0.01963   0.01963   2.07519
   R22        2.53180   0.03688   0.00000   0.05484   0.05484   2.58663
   R23        2.05552   0.00842   0.00000   0.01969   0.01969   2.07521
   R24        2.79276  -0.00052   0.00000  -0.00123  -0.00123   2.79153
   R25        2.05556   0.00838   0.00000   0.01960   0.01960   2.07516
   R26        2.53178   0.03416   0.00000   0.05078   0.05078   2.58256
   R27        2.05550   0.00848   0.00000   0.01982   0.01982   2.07532
   R28        2.79208   0.00435   0.00000   0.01024   0.01024   2.80232
   R29        2.05561   0.00831   0.00000   0.01943   0.01943   2.07504
   R30        2.52310   0.02167   0.00000   0.03168   0.03168   2.55478
   R31        2.05362   0.00982   0.00000   0.02289   0.02289   2.07651
   R32        2.05252   0.00772   0.00000   0.01796   0.01796   2.07048
   R33        2.05070   0.00900   0.00000   0.02089   0.02089   2.07158
    A1        2.09339   0.00547   0.00000   0.02521   0.02521   2.11859
    A2        2.11124   0.00115   0.00000   0.00529   0.00529   2.11653
    A3        2.07856  -0.00662   0.00000  -0.03050  -0.03050   2.04806
    A4        2.11063   0.01263   0.00000   0.04457   0.04457   2.15520
    A5        2.07955   0.00021   0.00000   0.00775   0.00775   2.08730
    A6        2.09301  -0.01283   0.00000  -0.05232  -0.05232   2.04069
    A7        2.10673   0.01352   0.00000   0.04774   0.04774   2.15447
    A8        2.08441  -0.01119   0.00000  -0.04429  -0.04429   2.04012
    A9        2.09204  -0.00233   0.00000  -0.00345  -0.00345   2.08859
   A10        2.10833   0.01341   0.00000   0.04734   0.04734   2.15566
   A11        2.09092  -0.00242   0.00000  -0.00391  -0.00391   2.08701
   A12        2.08394  -0.01099   0.00000  -0.04343  -0.04343   2.04051
   A13        2.10638   0.01366   0.00000   0.04821   0.04821   2.15459
   A14        2.08493  -0.01112   0.00000  -0.04389  -0.04389   2.04104
   A15        2.09187  -0.00253   0.00000  -0.00432  -0.00432   2.08755
   A16        2.10883   0.01330   0.00000   0.04695   0.04695   2.15579
   A17        2.09080  -0.00237   0.00000  -0.00374  -0.00374   2.08706
   A18        2.08355  -0.01093   0.00000  -0.04321  -0.04321   2.04034
   A19        2.10595   0.01377   0.00000   0.04862   0.04862   2.15457
   A20        2.08516  -0.01117   0.00000  -0.04404  -0.04404   2.04112
   A21        2.09208  -0.00261   0.00000  -0.00459  -0.00459   2.08749
   A22        2.10912   0.01325   0.00000   0.04676   0.04676   2.15588
   A23        2.09072  -0.00235   0.00000  -0.00369  -0.00369   2.08702
   A24        2.08335  -0.01090   0.00000  -0.04306  -0.04306   2.04028
   A25        2.10587   0.01380   0.00000   0.04870   0.04870   2.15457
   A26        2.08518  -0.01117   0.00000  -0.04402  -0.04402   2.04116
   A27        2.09214  -0.00263   0.00000  -0.00468  -0.00468   2.08746
   A28        2.10902   0.01325   0.00000   0.04677   0.04677   2.15579
   A29        2.09078  -0.00236   0.00000  -0.00374  -0.00374   2.08704
   A30        2.08338  -0.01089   0.00000  -0.04304  -0.04304   2.04035
   A31        2.10614   0.01375   0.00000   0.04854   0.04854   2.15468
   A32        2.08501  -0.01114   0.00000  -0.04390  -0.04390   2.04111
   A33        2.09204  -0.00262   0.00000  -0.00464  -0.00464   2.08739
   A34        2.10861   0.01328   0.00000   0.04686   0.04686   2.15547
   A35        2.09098  -0.00237   0.00000  -0.00379  -0.00379   2.08720
   A36        2.08359  -0.01090   0.00000  -0.04308  -0.04308   2.04052
   A37        2.10669   0.01367   0.00000   0.04826   0.04826   2.15496
   A38        2.08478  -0.01109   0.00000  -0.04374  -0.04374   2.04103
   A39        2.09171  -0.00258   0.00000  -0.00452  -0.00452   2.08720
   A40        2.10780   0.01334   0.00000   0.04710   0.04710   2.15490
   A41        2.09166  -0.00227   0.00000  -0.00327  -0.00327   2.08839
   A42        2.08373  -0.01107   0.00000  -0.04383  -0.04383   2.03990
   A43        2.11011   0.01269   0.00000   0.04480   0.04480   2.15491
   A44        2.09323  -0.01284   0.00000  -0.05232  -0.05232   2.04091
   A45        2.07984   0.00015   0.00000   0.00752   0.00752   2.08736
   A46        2.11118   0.00115   0.00000   0.00528   0.00528   2.11646
   A47        2.09360   0.00545   0.00000   0.02510   0.02510   2.11870
   A48        2.07841  -0.00659   0.00000  -0.03038  -0.03038   2.04803
    D1        3.14159   0.00000   0.00000   0.00000   0.00000   3.14159
    D2        0.00001   0.00000   0.00000   0.00000   0.00000   0.00001
    D3       -0.00001   0.00000   0.00000   0.00000   0.00000   0.00000
    D4       -3.14159   0.00000   0.00000   0.00000   0.00000  -3.14159
    D5       -3.14158   0.00000   0.00000   0.00000   0.00000  -3.14159
    D6        0.00001   0.00000   0.00000   0.00000   0.00000   0.00001
    D7        0.00000   0.00000   0.00000   0.00000   0.00000   0.00000
    D8       -3.14159   0.00000   0.00000   0.00000   0.00000  -3.14159
    D9       -3.14159   0.00000   0.00000   0.00000   0.00000  -3.14159
   D10        0.00000   0.00000   0.00000   0.00000   0.00000   0.00000
   D11        0.00000   0.00000   0.00000   0.00000   0.00000   0.00000
   D12        3.14159   0.00000   0.00000   0.00000   0.00000   3.14159
   D13        3.14159   0.00000   0.00000   0.00000   0.00000   3.14159
   D14       -0.00001   0.00000   0.00000   0.00000   0.00000   0.00000
   D15        0.00000   0.00000   0.00000   0.00000   0.00000   0.00000
   D16        3.14159   0.00000   0.00000   0.00000   0.00000   3.14159
   D17        3.14159   0.00000   0.00000   0.00000   0.00000   3.14159
   D18        0.00000   0.00000   0.00000   0.00000   0.00000   0.00000
   D19        0.00000   0.00000   0.00000   0.00000   0.00000   0.00000
   D20        3.14159   0.00000   0.00000   0.00000   0.00000  -3.14159
   D21        3.14159   0.00000   0.00000   0.00000   0.00000   3.14159
   D22        0.00001   0.00000   0.00000   0.00000   0.00000   0.00000
   D23        0.00000   0.00000   0.00000   0.00000   0.00000   0.00000
   D24       -3.14158   0.00000   0.00000   0.00000   0.00000  -3.14159
   D25       -3.14159   0.00000   0.00000   0.00000   0.00000  -3.14159
   D26        0.00000   0.00000   0.00000   0.00000   0.00000   0.00000
   D27       -0.00001   0.00000   0.00000   0.00000   0.00000   0.00000
   D28        3.14158   0.00000   0.00000   0.00001   0.00001   3.14159
   D29        3.14159   0.00000   0.00000   0.00000   0.00000  -3.14159
   D30        0.00000   0.00000   0.00000   0.00000   0.00000   0.00000
   D31        0.00000   0.00000   0.00000   0.00000   0.00000   0.00000
   D32       -3.14159   0.00000   0.00000   0.00000   0.00000  -3.14159
   D33        3.14159   0.00000   0.00000   0.00000   0.00000   3.14159
   D34       -0.00001   0.00000   0.00000   0.00000   0.00000   0.00000
   D35        0.00000   0.00000   0.00000   0.00000   0.00000   0.00000
   D36        3.14159   0.00000   0.00000   0.00000   0.00000   3.14159
   D37        3.14159   0.00000   0.00000   0.00000   0.00000  -3.14159
   D38        0.00000   0.00000   0.00000   0.00000   0.00000   0.00000
   D39        0.00001   0.00000   0.00000   0.00000   0.00000   0.00001
   D40       -3.14159   0.00000   0.00000   0.00000   0.00000  -3.14159
   D41       -3.14159   0.00000   0.00000   0.00000   0.00000  -3.14159
   D42       -0.00001   0.00000   0.00000   0.00000   0.00000  -0.00001
   D43        0.00001   0.00000   0.00000   0.00000   0.00000   0.00000
   D44        3.14158   0.00000   0.00000   0.00000   0.00000   3.14159
   D45        3.14159   0.00000   0.00000   0.00000   0.00000   3.14159
   D46       -0.00001   0.00000   0.00000   0.00001   0.00001  -0.00001
   D47        0.00001   0.00000   0.00000  -0.00001  -0.00001   0.00001
   D48       -3.14159   0.00000   0.00000   0.00000   0.00000  -3.14159
   D49        3.14159   0.00000   0.00000   0.00000   0.00000   3.14159
   D50       -0.00001   0.00000   0.00000   0.00001   0.00001  -0.00001
   D51        0.00001   0.00000   0.00000   0.00000   0.00000   0.00000
   D52        3.14159   0.00000   0.00000   0.00000   0.00000   3.14159
   D53        3.14159   0.00000   0.00000   0.00000   0.00000   3.14159
   D54       -0.00001   0.00000   0.00000   0.00000   0.00000  -0.00001
   D55        0.00000   0.00000   0.00000   0.00000   0.00000   0.00000
   D56        3.14159   0.00000   0.00000   0.00000   0.00000   3.14159
   D57        0.00000   0.00000   0.00000   0.00000   0.00000   0.00000
   D58       -3.14159   0.00000   0.00000   0.00000   0.00000  -3.14159
   D59       -3.14159   0.00000   0.00000   0.00000   0.00000  -3.14159
   D60        0.00001   0.00000   0.00000   0.00000   0.00000   0.00000
         Item               Value     Threshold  Converged?
 Maximum Force            0.037692     0.000015     NO 
 RMS     Force            0.010226     0.000010     NO 
 Maximum Displacement     0.393228     0.000060     NO 
 RMS     Displacement     0.131067     0.000040     NO 
 Predicted change in Energy=-1.976800D-02
 GradGradGradGradGradGradGradGradGradGradGradGradGradGradGradGradGradGrad

                          Input orientation:                          
 ---------------------------------------------------------------------
 Center     Atomic      Atomic             Coordinates (Angstroms)
 Number     Number       Type             X           Y           Z
 ---------------------------------------------------------------------
      1          6           0        1.111988   -0.395557   -0.149922
      2          6           0        1.677061    0.437480   -1.052372
      3          6           0        3.139757    0.657182   -1.159331
      4          6           0        3.710068    1.499503   -2.071934
      5          6           0        5.166874    1.719488   -2.179810
      6          6           0        5.736757    2.563474   -3.094377
      7          6           0        7.191911    2.784381   -3.203478
      8          6           0        7.760520    3.629089   -4.119011
      9          6           0        9.215071    3.851179   -4.229537
     10          6           0        9.782057    4.696302   -5.145707
     11          6           0       11.236599    4.919591   -5.257614
     12          6           0       11.801977    5.764723   -6.173954
     13          6           0       13.257700    5.988965   -6.286848
     14          6           0       13.821544    6.832924   -7.201992
     15          6           0       15.282906    7.057985   -7.315262
     16          6           0       15.840692    7.892860   -8.220563
     17          1           0        0.025398   -0.532144   -0.101107
     18          1           0        1.722854   -0.961349    0.562236
     19          1           0        1.038094    0.991595   -1.753890
     20          1           0        3.777758    0.103199   -0.458064
     21          1           0        3.070557    2.052832   -2.772604
     22          1           0        5.806791    1.166459   -1.479444
     23          1           0        5.096369    3.116304   -3.794561
     24          1           0        7.832972    2.231936   -2.503676
     25          1           0        7.119028    4.181327   -4.818626
     26          1           0        9.857327    3.299356   -3.530323
     27          1           0        9.139428    5.247933   -5.844741
     28          1           0       11.879912    4.368304   -4.558916
     29          1           0       11.158507    6.315898   -6.872548
     30          1           0       13.901681    5.437988   -5.588432
     31          1           0       13.178708    7.384380   -7.900847
     32          1           0       15.927103    6.506612   -6.616368
     33          1           0       15.224377    8.455952   -8.930164
     34          1           0       16.926504    8.033728   -8.274391
 ---------------------------------------------------------------------
                    Distance matrix (angstroms):
                    1          2          3          4          5
     1  C    0.000000
     2  C    1.351915   0.000000
     3  C    2.497801   1.482966   0.000000
     4  C    3.746386   2.510084   1.366604   0.000000
     5  C    5.003594   3.885029   2.505808   1.477265   0.000000
     6  C    6.230102   5.017048   3.758027   2.506968   1.368764
     7  C    7.510105   6.367792   5.012332   3.880017   2.506526
     8  C    8.726650   7.523238   6.240464   5.013164   3.759532
     9  C   10.016884   8.863933   7.519124   6.363228   5.013321
    10  C   11.227422  10.029154   8.736467   7.519086   6.241625
    11  C   12.523860  11.364777  10.026112   8.859696   7.520313
    12  C   13.730035  12.534913  11.236881  10.024851   8.737374
    13  C   15.031377  13.868307  12.533640  11.361251  10.027845
    14  C   16.233159  15.040213  13.738782  12.530156  11.237120
    15  C   17.541731  16.376016  15.043997  13.867941  12.538203
    16  C   18.728797  17.537791  16.233601  15.027730  13.730682
    17  H    1.096228   2.138473   3.497651   4.646348   5.985451
    18  H    1.095650   2.136768   2.755185   4.116269   5.154316
    19  H    2.121878   1.098840   2.209597   2.738352   4.214031
    20  H    2.729476   2.208591   1.098052   2.135141   2.739789
    21  H    4.087672   2.740509   2.134310   1.098219   2.203875
    22  H    5.123348   4.215267   2.734028   2.204134   1.098111
    23  H    6.441417   5.136863   4.101226   2.739218   2.136232
    24  H    7.590488   6.574314   5.129658   4.209655   2.734150
    25  H    8.878580   7.603687   6.453266   5.133955   4.103036
    26  H   10.077720   9.013730   7.597923   6.569258   5.130324
    27  H   11.345472  10.089310   8.889551   7.600180   6.454675
    28  H   12.573058  11.482395  10.085630   9.008964   7.598767
    29  H   13.826419  12.582848  11.356156  10.085771   8.890920
    30  H   15.072620  13.965037  12.581417  11.478083  10.086764
    31  H   16.315943  15.081410  13.837767  12.580268  11.358290
    32  H   17.576760  16.457707  15.083478  13.963486  12.584997
    33  H   18.830863  17.603559  16.347621  15.099894  13.860036
    34  H   19.676351  18.504218  17.178822  15.995022  14.673189
                    6          7          8          9         10
     6  C    0.000000
     7  C    1.475865   0.000000
     8  C    2.506197   1.369323   0.000000
     9  C    3.878845   2.506796   1.475554   0.000000
    10  C    5.012121   3.759860   2.505925   1.369333   0.000000
    11  C    6.362322   5.013790   3.878781   2.506995   1.475830
    12  C    7.517890   6.241704   5.011696   3.759587   2.505772
    13  C    8.859483   7.521324   6.362981   5.014530   3.879855
    14  C   10.023197   8.736752   7.517004   6.240664   5.011079
    15  C   11.364218  10.031682   8.863388   7.524888   6.367406
    16  C   12.520768  11.228050  10.014572   8.727104   7.508647
    17  H    7.152772   8.484277   9.658753  10.986698  12.164581
    18  H    6.473532   7.623758   8.912890  10.112113  11.381581
    19  H    5.132753   6.571519   7.598762   9.009384  10.083956
    20  H    4.103752   5.136388   6.457308   7.604981   8.895066
    21  H    2.733664   4.207895   5.127685   6.565954   7.593668
    22  H    2.136484   2.740169   4.104743   5.136838   6.457865
    23  H    1.098169   2.202464   2.732383   4.206299   5.126174
    24  H    2.202944   1.098125   2.136959   2.740573   4.105162
    25  H    2.738823   2.136696   1.098153   2.202139   2.732015
    26  H    4.208404   2.734313   2.202697   1.098135   2.136958
    27  H    5.133126   4.103434   2.738647   2.136709   1.098143
    28  H    6.568153   5.130631   4.208247   2.734463   2.202930
    29  H    7.599383   6.455042   5.132955   4.103327   2.738555
    30  H    9.008280   7.599384   6.568499   5.131167   4.209204
    31  H   10.085927   8.891962   7.600083   6.455420   5.133595
    32  H   11.480240  10.089915   9.011660   7.602609   6.572797
    33  H   12.601295  11.379022  10.107174   8.911318   7.620757
    34  H   13.489502  12.166844  10.985595   9.660268   8.483525
                   11         12         13         14         15
    11  C    0.000000
    12  C    1.368788   0.000000
    13  C    2.507535   1.477213   0.000000
    14  C    3.758110   2.505308   1.366629   0.000000
    15  C    5.017893   3.884840   2.510358   1.482924   0.000000
    16  C    6.230335   5.002879   3.746454   2.497581   1.351929
    17  H   13.490812  14.670304  15.996314  17.175577  18.505287
    18  H   12.608230  13.863802  15.108590  16.352744  17.613623
    19  H   11.476704  12.576999  13.958517  15.073803  16.451280
    20  H   10.092950  11.362762  12.589133  13.843678  15.091675
    21  H    9.004323  10.078939  11.472617  12.571892  13.958108
    22  H    7.605484   8.895207  10.093748  11.361895  12.592204
    23  H    6.564663   7.592155   9.003944  10.077328  11.475963
    24  H    5.137347   6.457904   7.606269   8.894169  10.096713
    25  H    4.206202   5.125824   6.565556   7.591780   9.008733
    26  H    2.740636   4.104690   5.137603   6.456181   7.608546
    27  H    2.202420   2.732146   4.207702   5.126065   6.571229
    28  H    1.098156   2.136447   2.740546   4.102455   5.139280
    29  H    2.136302   1.098126   2.203757   2.732694   4.213948
    30  H    2.735112   2.204166   1.098213   2.134443   2.741189
    31  H    4.102883   2.738765   2.135045   1.098062   2.208414
    32  H    5.134752   4.214593   2.739024   2.209709   1.098843
    33  H    6.472700   5.152886   4.115940   2.754767   2.136737
    34  H    7.153588   5.985065   4.646666   3.497535   2.138555
                   16         17         18         19         20
    16  C    0.000000
    17  H   19.673073   0.000000
    18  H   18.837408   1.872324   0.000000
[...]
     7  C    0.000000   0.000000  -0.000006   0.000815  -0.027033   0.441434
     8  C    0.000000   0.000000   0.000000  -0.000006   0.000703  -0.027015
     9  C    0.000000   0.000000   0.000000   0.000000  -0.000006   0.000815
    10  C    0.000000   0.000000   0.000000   0.000000   0.000000  -0.000006
    11  C    0.000000   0.000000   0.000000   0.000000   0.000000   0.000000
    12  C    0.000000   0.000000   0.000000   0.000000   0.000000   0.000000
    13  C    0.000000   0.000000   0.000000   0.000000   0.000000   0.000000
    14  C    0.000000   0.000000   0.000000   0.000000   0.000000   0.000000
    15  C    0.000000   0.000000   0.000000   0.000000   0.000000   0.000000
    16  C    0.000000   0.000000   0.000000   0.000000   0.000000   0.000000
    17  H    0.388068  -0.023831   0.001413  -0.000019   0.000000   0.000000
    18  H    0.386161  -0.024406  -0.004209   0.000025  -0.000001   0.000000
    19  H   -0.026787   0.385310  -0.025321  -0.003236   0.000003   0.000000
    20  H   -0.003081  -0.024622   0.384227  -0.026604  -0.004157   0.000024
    21  H    0.000027  -0.004218  -0.026728   0.384339  -0.024984  -0.003293
    22  H    0.000000   0.000004  -0.003267  -0.024900   0.384352  -0.026578
    23  H    0.000000  -0.000001   0.000025  -0.004167  -0.026622   0.384383
    24  H    0.000000   0.000000   0.000000   0.000005  -0.003309  -0.024991
    25  H    0.000000   0.000000   0.000000  -0.000001   0.000024  -0.004149
    26  H    0.000000   0.000000   0.000000   0.000000   0.000000   0.000005
    27  H    0.000000   0.000000   0.000000   0.000000   0.000000  -0.000001
    28  H    0.000000   0.000000   0.000000   0.000000   0.000000   0.000000
    29  H    0.000000   0.000000   0.000000   0.000000   0.000000   0.000000
    30  H    0.000000   0.000000   0.000000   0.000000   0.000000   0.000000
    31  H    0.000000   0.000000   0.000000   0.000000   0.000000   0.000000
    32  H    0.000000   0.000000   0.000000   0.000000   0.000000   0.000000
    33  H    0.000000   0.000000   0.000000   0.000000   0.000000   0.000000
    34  H    0.000000   0.000000   0.000000   0.000000   0.000000   0.000000
               7          8          9         10         11         12
     1  C    0.000000   0.000000   0.000000   0.000000   0.000000   0.000000
     2  C    0.000000   0.000000   0.000000   0.000000   0.000000   0.000000
     3  C   -0.000006   0.000000   0.000000   0.000000   0.000000   0.000000
     4  C    0.000815  -0.000006   0.000000   0.000000   0.000000   0.000000
     5  C   -0.027033   0.000703  -0.000006   0.000000   0.000000   0.000000
     6  C    0.441434  -0.027015   0.000815  -0.000006   0.000000   0.000000
     7  C    4.812838   0.549481  -0.027036   0.000704  -0.000006   0.000000
     8  C    0.549481   4.812110   0.442354  -0.027036   0.000815  -0.000006
     9  C   -0.027036   0.442354   4.812110   0.549481  -0.027015   0.000703
    10  C    0.000704  -0.027036   0.549481   4.812838   0.441434  -0.027033
    11  C   -0.000006   0.000815  -0.027015   0.441434   4.811149   0.551524
    12  C    0.000000  -0.000006   0.000703  -0.027033   0.551524   4.813996
    13  C    0.000000   0.000000  -0.000006   0.000815  -0.026942   0.437865
    14  C    0.000000   0.000000   0.000000  -0.000006   0.000697  -0.026986
    15  C    0.000000   0.000000   0.000000   0.000000  -0.000006   0.000812
    16  C    0.000000   0.000000   0.000000   0.000000   0.000000  -0.000006
    17  H    0.000000   0.000000   0.000000   0.000000   0.000000   0.000000
    18  H    0.000000   0.000000   0.000000   0.000000   0.000000   0.000000
    19  H    0.000000   0.000000   0.000000   0.000000   0.000000   0.000000
    20  H   -0.000001   0.000000   0.000000   0.000000   0.000000   0.000000
    21  H    0.000005   0.000000   0.000000   0.000000   0.000000   0.000000
    22  H   -0.004148   0.000024  -0.000001   0.000000   0.000000   0.000000
    23  H   -0.025017  -0.003318   0.000005   0.000000   0.000000   0.000000
    24  H    0.384373  -0.026574  -0.004144   0.000024  -0.000001   0.000000
    25  H   -0.026586   0.384382  -0.025021  -0.003322   0.000005   0.000000
    26  H   -0.003322  -0.025021   0.384382  -0.026586  -0.004149   0.000024
    27  H    0.000024  -0.004144  -0.026574   0.384373  -0.024991  -0.003309
    28  H    0.000000   0.000005  -0.003318  -0.025017   0.384383  -0.026622
    29  H    0.000000  -0.000001   0.000024  -0.004148  -0.026578   0.384352
    30  H    0.000000   0.000000   0.000000   0.000005  -0.003293  -0.024984
    31  H    0.000000   0.000000   0.000000  -0.000001   0.000024  -0.004157
    32  H    0.000000   0.000000   0.000000   0.000000   0.000000   0.000003
    33  H    0.000000   0.000000   0.000000   0.000000   0.000000  -0.000001
    34  H    0.000000   0.000000   0.000000   0.000000   0.000000   0.000000
              13         14         15         16         17         18
     1  C    0.000000   0.000000   0.000000   0.000000   0.388068   0.386161
     2  C    0.000000   0.000000   0.000000   0.000000  -0.023831  -0.024406
     3  C    0.000000   0.000000   0.000000   0.000000   0.001413  -0.004209
     4  C    0.000000   0.000000   0.000000   0.000000  -0.000019   0.000025
     5  C    0.000000   0.000000   0.000000   0.000000   0.000000  -0.000001
     6  C    0.000000   0.000000   0.000000   0.000000   0.000000   0.000000
     7  C    0.000000   0.000000   0.000000   0.000000   0.000000   0.000000
     8  C    0.000000   0.000000   0.000000   0.000000   0.000000   0.000000
     9  C   -0.000006   0.000000   0.000000   0.000000   0.000000   0.000000
    10  C    0.000815  -0.000006   0.000000   0.000000   0.000000   0.000000
    11  C   -0.026942   0.000697  -0.000006   0.000000   0.000000   0.000000
    12  C    0.437865  -0.026986   0.000812  -0.000006   0.000000   0.000000
    13  C    4.809003   0.557605  -0.026676   0.000687   0.000000   0.000000
    14  C    0.557605   4.818954   0.426540  -0.027604   0.000000   0.000000
    15  C   -0.026676   0.426540   4.789975   0.579371   0.000000   0.000000
    16  C    0.000687  -0.027604   0.579371   4.856491   0.000000   0.000000
    17  H    0.000000   0.000000   0.000000   0.000000   0.584138  -0.023566
    18  H    0.000000   0.000000   0.000000   0.000000  -0.023566   0.586627
    19  H    0.000000   0.000000   0.000000   0.000000  -0.004627   0.002004
    20  H    0.000000   0.000000   0.000000   0.000000   0.000001   0.000954
    21  H    0.000000   0.000000   0.000000   0.000000  -0.000001   0.000001
    22  H    0.000000   0.000000   0.000000   0.000000   0.000000   0.000000
    23  H    0.000000   0.000000   0.000000   0.000000   0.000000   0.000000
    24  H    0.000000   0.000000   0.000000   0.000000   0.000000   0.000000
    25  H    0.000000   0.000000   0.000000   0.000000   0.000000   0.000000
    26  H   -0.000001   0.000000   0.000000   0.000000   0.000000   0.000000
    27  H    0.000005   0.000000   0.000000   0.000000   0.000000   0.000000
    28  H   -0.004167   0.000025  -0.000001   0.000000   0.000000   0.000000
    29  H   -0.024900  -0.003267   0.000004   0.000000   0.000000   0.000000
    30  H    0.384339  -0.026728  -0.004218   0.000027   0.000000   0.000000
    31  H   -0.026604   0.384227  -0.024622  -0.003081   0.000000   0.000000
    32  H   -0.003236  -0.025321   0.385310  -0.026787   0.000000   0.000000
    33  H    0.000025  -0.004209  -0.024406   0.386161   0.000000   0.000000
    34  H   -0.000019   0.001413  -0.023831   0.388068   0.000000   0.000000
              19         20         21         22         23         24
     1  C   -0.026787  -0.003081   0.000027   0.000000   0.000000   0.000000
     2  C    0.385310  -0.024622  -0.004218   0.000004  -0.000001   0.000000
     3  C   -0.025321   0.384227  -0.026728  -0.003267   0.000025   0.000000
     4  C   -0.003236  -0.026604   0.384339  -0.024900  -0.004167   0.000005
     5  C    0.000003  -0.004157  -0.024984   0.384352  -0.026622  -0.003309
     6  C    0.000000   0.000024  -0.003293  -0.026578   0.384383  -0.024991
     7  C    0.000000  -0.000001   0.000005  -0.004148  -0.025017   0.384373
     8  C    0.000000   0.000000   0.000000   0.000024  -0.003318  -0.026574
     9  C    0.000000   0.000000   0.000000  -0.000001   0.000005  -0.004144
    10  C    0.000000   0.000000   0.000000   0.000000   0.000000   0.000024
    11  C    0.000000   0.000000   0.000000   0.000000   0.000000  -0.000001
    12  C    0.000000   0.000000   0.000000   0.000000   0.000000   0.000000
    13  C    0.000000   0.000000   0.000000   0.000000   0.000000   0.000000
    14  C    0.000000   0.000000   0.000000   0.000000   0.000000   0.000000
    15  C    0.000000   0.000000   0.000000   0.000000   0.000000   0.000000
    16  C    0.000000   0.000000   0.000000   0.000000   0.000000   0.000000
    17  H   -0.004627   0.000001  -0.000001   0.000000   0.000000   0.000000
    18  H    0.002004   0.000954   0.000001   0.000000   0.000000   0.000000
    19  H    0.592535   0.001555   0.001016   0.000000   0.000000   0.000000
    20  H    0.001555   0.592372   0.001969   0.000975   0.000001   0.000000
    21  H    0.001016   0.001969   0.592814   0.001583   0.000984   0.000000
    22  H    0.000000   0.000975   0.001583   0.592508   0.001954   0.000980
    23  H    0.000000   0.000001   0.000984   0.001954   0.592710   0.001596
    24  H    0.000000   0.000000   0.000000   0.000980   0.001596   0.592633
    25  H    0.000000   0.000000   0.000000   0.000001   0.000982   0.001949
    26  H    0.000000   0.000000   0.000000   0.000000   0.000000   0.000981
    27  H    0.000000   0.000000   0.000000   0.000000   0.000000   0.000001
    28  H    0.000000   0.000000   0.000000   0.000000   0.000000   0.000000
    29  H    0.000000   0.000000   0.000000   0.000000   0.000000   0.000000
    30  H    0.000000   0.000000   0.000000   0.000000   0.000000   0.000000
    31  H    0.000000   0.000000   0.000000   0.000000   0.000000   0.000000
    32  H    0.000000   0.000000   0.000000   0.000000   0.000000   0.000000
    33  H    0.000000   0.000000   0.000000   0.000000   0.000000   0.000000
    34  H    0.000000   0.000000   0.000000   0.000000   0.000000   0.000000
              25         26         27         28         29         30
     1  C    0.000000   0.000000   0.000000   0.000000   0.000000   0.000000
     2  C    0.000000   0.000000   0.000000   0.000000   0.000000   0.000000
     3  C    0.000000   0.000000   0.000000   0.000000   0.000000   0.000000
     4  C   -0.000001   0.000000   0.000000   0.000000   0.000000   0.000000
     5  C    0.000024   0.000000   0.000000   0.000000   0.000000   0.000000
     6  C   -0.004149   0.000005  -0.000001   0.000000   0.000000   0.000000
     7  C   -0.026586  -0.003322   0.000024   0.000000   0.000000   0.000000
     8  C    0.384382  -0.025021  -0.004144   0.000005  -0.000001   0.000000
     9  C   -0.025021   0.384382  -0.026574  -0.003318   0.000024   0.000000
    10  C   -0.003322  -0.026586   0.384373  -0.025017  -0.004148   0.000005
    11  C    0.000005  -0.004149  -0.024991   0.384383  -0.026578  -0.003293
    12  C    0.000000   0.000024  -0.003309  -0.026622   0.384352  -0.024984
    13  C    0.000000  -0.000001   0.000005  -0.004167  -0.024900   0.384339
    14  C    0.000000   0.000000   0.000000   0.000025  -0.003267  -0.026728
    15  C    0.000000   0.000000   0.000000  -0.000001   0.000004  -0.004218
    16  C    0.000000   0.000000   0.000000   0.000000   0.000000   0.000027
    17  H    0.000000   0.000000   0.000000   0.000000   0.000000   0.000000
    18  H    0.000000   0.000000   0.000000   0.000000   0.000000   0.000000
    19  H    0.000000   0.000000   0.000000   0.000000   0.000000   0.000000
    20  H    0.000000   0.000000   0.000000   0.000000   0.000000   0.000000
    21  H    0.000000   0.000000   0.000000   0.000000   0.000000   0.000000
    22  H    0.000001   0.000000   0.000000   0.000000   0.000000   0.000000
    23  H    0.000982   0.000000   0.000000   0.000000   0.000000   0.000000
    24  H    0.001949   0.000981   0.000001   0.000000   0.000000   0.000000
    25  H    0.592684   0.001599   0.000981   0.000000   0.000000   0.000000
    26  H    0.001599   0.592684   0.001949   0.000982   0.000001   0.000000
    27  H    0.000981   0.001949   0.592633   0.001596   0.000980   0.000000
    28  H    0.000000   0.000982   0.001596   0.592710   0.001954   0.000984
    29  H    0.000000   0.000001   0.000980   0.001954   0.592508   0.001583
    30  H    0.000000   0.000000   0.000000   0.000984   0.001583   0.592814
    31  H    0.000000   0.000000   0.000000   0.000001   0.000975   0.001969
    32  H    0.000000   0.000000   0.000000   0.000000   0.000000   0.001016
    33  H    0.000000   0.000000   0.000000   0.000000   0.000000   0.000001
    34  H    0.000000   0.000000   0.000000   0.000000   0.000000  -0.000001
              31         32         33         34
     1  C    0.000000   0.000000   0.000000   0.000000
     2  C    0.000000   0.000000   0.000000   0.000000
     3  C    0.000000   0.000000   0.000000   0.000000
     4  C    0.000000   0.000000   0.000000   0.000000
     5  C    0.000000   0.000000   0.000000   0.000000
     6  C    0.000000   0.000000   0.000000   0.000000
     7  C    0.000000   0.000000   0.000000   0.000000
     8  C    0.000000   0.000000   0.000000   0.000000
     9  C    0.000000   0.000000   0.000000   0.000000
    10  C   -0.000001   0.000000   0.000000   0.000000
    11  C    0.000024   0.000000   0.000000   0.000000
    12  C   -0.004157   0.000003  -0.000001   0.000000
    13  C   -0.026604  -0.003236   0.000025  -0.000019
    14  C    0.384227  -0.025321  -0.004209   0.001413
    15  C   -0.024622   0.385310  -0.024406  -0.023831
    16  C   -0.003081  -0.026787   0.386161   0.388068
    17  H    0.000000   0.000000   0.000000   0.000000
    18  H    0.000000   0.000000   0.000000   0.000000
    19  H    0.000000   0.000000   0.000000   0.000000
    20  H    0.000000   0.000000   0.000000   0.000000
    21  H    0.000000   0.000000   0.000000   0.000000
    22  H    0.000000   0.000000   0.000000   0.000000
    23  H    0.000000   0.000000   0.000000   0.000000
    24  H    0.000000   0.000000   0.000000   0.000000
    25  H    0.000000   0.000000   0.000000   0.000000
    26  H    0.000000   0.000000   0.000000   0.000000
    27  H    0.000000   0.000000   0.000000   0.000000
    28  H    0.000001   0.000000   0.000000   0.000000
    29  H    0.000975   0.000000   0.000000   0.000000
    30  H    0.001969   0.001016   0.000001  -0.000001
    31  H    0.592372   0.001555   0.000954   0.000001
    32  H    0.001555   0.592535   0.002004  -0.004627
    33  H    0.000954   0.002004   0.586627  -0.023566
    34  H    0.000001  -0.004627  -0.023566   0.584138
 Mulliken charges:
               1
     1  C   -0.153327
     2  C   -0.078253
     3  C   -0.075338
     4  C   -0.077794
     5  C   -0.076175
     6  C   -0.077050
     7  C   -0.076517
     8  C   -0.076753
     9  C   -0.076753
    10  C   -0.076517
    11  C   -0.077050
    12  C   -0.076175
    13  C   -0.077794
    14  C   -0.075338
    15  C   -0.078253
    16  C   -0.153327
    17  H    0.078425
    18  H    0.076410
    19  H    0.077548
    20  H    0.076387
    21  H    0.076488
    22  H    0.076514
    23  H    0.076485
    24  H    0.076478
    25  H    0.076472
    26  H    0.076472
    27  H    0.076478
    28  H    0.076485
    29  H    0.076514
    30  H    0.076488
    31  H    0.076387
    32  H    0.077548
    33  H    0.076410
    34  H    0.078425
 Sum of Mulliken charges =   0.00000
 Mulliken charges with hydrogens summed into heavy atoms:
               1
     1  C    0.001508
     2  C   -0.000704
     3  C    0.001049
     4  C   -0.001307
     5  C    0.000339
     6  C   -0.000565
     7  C   -0.000038
     8  C   -0.000281
     9  C   -0.000281
    10  C   -0.000038
    11  C   -0.000565
    12  C    0.000339
    13  C   -0.001307
    14  C    0.001049
    15  C   -0.000704
    16  C    0.001508
 Electronic spatial extent (au):  <R**2>=          14376.8872
 Charge=              0.0000 electrons
 Dipole moment (field-independent basis, Debye):
    X=              0.0000    Y=              0.0000    Z=              0.0000  Tot=              0.0000
 Quadrupole moment (field-independent basis, Debye-Ang):
   XX=            -82.4397   YY=            -81.6592   ZZ=            -95.5626
   XY=             -0.2107   XZ=              0.0000   YZ=              0.0000
 Traceless Quadrupole moment (field-independent basis, Debye-Ang):
   XX=              4.1141   YY=              4.8947   ZZ=             -9.0087
   XY=             -0.2107   XZ=              0.0000   YZ=              0.0000
 Octapole moment (field-independent basis, Debye-Ang**2):
  XXX=              0.0003  YYY=              0.0000  ZZZ=              0.0000  XYY=              0.0000
  XXY=              0.0000  XXZ=              0.0000  XZZ=              0.0000  YZZ=              0.0000
  YYZ=              0.0000  XYZ=              0.0000
 Hexadecapole moment (field-independent basis, Debye-Ang**3):
 XXXX=         -17176.4238 YYYY=           -236.2139 ZZZZ=            -77.5512 XXXY=             13.8296
 XXXZ=              0.0002 YYYX=             -5.4868 YYYZ=              0.0000 ZZZX=              0.0000
 ZZZY=              0.0000 XXYY=          -2881.9792 XXZZ=          -3321.9489 YYZZ=            -60.4099
 XXYZ=              0.0000 YYXZ=              0.0000 ZZXY=             -0.3446
 N-N= 7.880022724216D+02 E-N=-2.993874323280D+03  KE= 6.026830313879D+02
 1\1\GINC-PC-AVL46\FOpt\RB3LYP\STO-3G\C16H18\BING\28-Jan-2019\0\\# opt(
 tight) b3lyp/sto-3g\\c16h18\\0,1\C,1.1264791442,-0.3880587406,-0.15709
 57619\C,1.7004737334,0.4403977603,-1.0533839109\C,3.1558721073,0.66060
 80028,-1.1616601871\C,3.7309239125,1.5007279358,-2.0712673513\C,5.1744
 125422,1.7225991557,-2.1826437735\C,5.7490747543,2.5659483622,-3.09600
 67135\C,7.1888598693,2.7883858401,-3.2084041221\C,7.7634372048,3.63281
 18575,-4.1230149814\C,9.2022652912,3.8554122507,-4.2356956653\C,9.7768
 417828,4.6998384591,-5.1503068853\C,11.2166265737,4.9222771185,-5.2627
 058049\C,11.7912863771,5.7656268723,-6.176069771\C,13.2347744103,5.987
 500329,-6.2874489692\C,13.8098226005,6.8276210956,-7.1970576876\C,15.2
 652202693,7.0478343098,-7.305337708\C,15.8392105533,7.8762918599,-8.20
 16277074\H,0.0398233805,-0.5241563082,-0.108848109\H,1.7239652582,-0.9
 612796177,0.562279781\H,1.0708343183,1.0005656839,-1.7609428086\H,3.79
 45078579,0.1052906291,-0.4587867528\H,3.0885524686,2.0542216831,-2.772
 4145918\H,5.8183789671,1.1700358866,-1.4824084259\H,5.1039485328,3.117
 9373811,-3.7956967238\H,7.8345246764,2.2367027023,-2.5090124733\H,7.11
 74635567,4.1843405883,-4.8222598522\H,9.8482392894,3.3038836973,-3.536
 451003\H,9.1311761018,5.251521126,-5.8496981257\H,11.8617543226,4.3702
 88912,-4.5630165861\H,11.1473179843,6.3181890944,-6.8763041637\H,13.87
 71483563,5.4340079087,-5.5863029914\H,13.171184062,7.3829370076,-7.899
 9297878\H,15.8948628142,6.4876680258,-6.5977802731\H,15.2417210586,8.4
 495111469,-8.9210017304\H,16.9258658685,8.01239198,-8.2498783852\\Vers
 ion=ES64L-G09RevD.01\State=1-A\HF=-612.8165036\RMSD=3.650e-09\RMSF=2.8
 48e-07\Dipole=0.0000012,0.0000008,-0.0000008\Quadrupole=3.0718441,-2.2
 661566,-0.8056875,0.3312705,0.5932814,-5.0677218\PG=C01 [X(C16H18)]\\@


      TO SUSPECT YOUR OWN MORTALITY IS TO KNOW THE BEGINNING OF TERROR.
      TO LEARN IRREFUTABLY THAT YOU ARE MORTAL IS TO KNOW THE END
      OF TERROR.

                                                  -- JESSICA
                                                     CHILDREN OF DUNE
                                                     BY FRANK HERBERT
 Job cpu time:       0 days  0 hours  3 minutes 33.9 seconds.
 File lengths (MBytes):  RWF=      8 Int=      0 D2E=      0 Chk=      3 Scr=      1
 Normal termination of Gaussian 09 at Mon Jan 28 19:29:57 2019.
