 Entering Gaussian System, Link 0=g09
 Input=c18h20.com
 Output=c18h20.out
 Initial command:
 /apps/g09_d.01/g09/l1.exe "/data/scratch/Gau-51461.inp" -scrdir="/data/scratch/"
 Entering Link 1 = /apps/g09_d.01/g09/l1.exe PID=     51476.
  
 Copyright (c) 1988,1990,1992,1993,1995,1998,2003,2009,2013,
            Gaussian, Inc.  All Rights Reserved.
  
 This is part of the Gaussian(R) 09 program.  It is based on
 the Gaussian(R) 03 system (copyright 2003, Gaussian, Inc.),
 the Gaussian(R) 98 system (copyright 1998, Gaussian, Inc.),
 the Gaussian(R) 94 system (copyright 1995, Gaussian, Inc.),
 the Gaussian 92(TM) system (copyright 1992, Gaussian, Inc.),
 the Gaussian 90(TM) system (copyright 1990, Gaussian, Inc.),
 the Gaussian 88(TM) system (copyright 1988, Gaussian, Inc.),
 the Gaussian 86(TM) system (copyright 1986, Carnegie Mellon
 University), and the Gaussian 82(TM) system (copyright 1983,
 Carnegie Mellon University). Gaussian is a federally registered
 trademark of Gaussian, Inc.
  
 This software contains proprietary and confidential information,
 including trade secrets, belonging to Gaussian, Inc.
  
 This software is provided under written license and may be
 used, copied, transmitted, or stored only in accord with that
 written license.
  
 The following legend is applicable only to US Government
 contracts under FAR:
  
                    RESTRICTED RIGHTS LEGEND
  
 Use, reproduction and disclosure by the US Government is
 subject to restrictions as set forth in subparagraphs (a)
 and (c) of the Commercial Computer Software - Restricted
 Rights clause in FAR 52.227-19.
  
 Gaussian, Inc.
 340 Quinnipiac St., Bldg. 40, Wallingford CT 06492
  
  
 ---------------------------------------------------------------
 Warning -- This program may not be used in any manner that
 competes with the business of Gaussian, Inc. or will provide
 assistance to any competitor of Gaussian, Inc.  The licensee
 of this program is prohibited from giving any competitor of
 Gaussian, Inc. access to this program.  By using this program,
 the user acknowledges that Gaussian, Inc. is engaged in the
 business of creating and licensing software in the field of
 computational chemistry and represents and warrants to the
 licensee that it is not a competitor of Gaussian, Inc. and that
 it will not use this program in any manner prohibited above.
 ---------------------------------------------------------------
  

 Cite this work as:
 Gaussian 09, Revision D.01,
 M. J. Frisch, G. W. Trucks, H. B. Schlegel, G. E. Scuseria, 
 M. A. Robb, J. R. Cheeseman, G. Scalmani, V. Barone, B. Mennucci, 
 G. A. Petersson, H. Nakatsuji, M. Caricato, X. Li, H. P. Hratchian, 
 A. F. Izmaylov, J. Bloino, G. Zheng, J. L. Sonnenberg, M. Hada, 
 M. Ehara, K. Toyota, R. Fukuda, J. Hasegawa, M. Ishida, T. Nakajima, 
 Y. Honda, O. Kitao, H. Nakai, T. Vreven, J. A. Montgomery, Jr., 
 J. E. Peralta, F. Ogliaro, M. Bearpark, J. J. Heyd, E. Brothers, 
 K. N. Kudin, V. N. Staroverov, T. Keith, R. Kobayashi, J. Normand, 
 K. Raghavachari, A. Rendell, J. C. Burant, S. S. Iyengar, J. Tomasi, 
 M. Cossi, N. Rega, J. M. Millam, M. Klene, J. E. Knox, J. B. Cross, 
 V. Bakken, C. Adamo, J. Jaramillo, R. Gomperts, R. E. Stratmann, 
 O. Yazyev, A. J. Austin, R. Cammi, C. Pomelli, J. W. Ochterski, 
 R. L. Martin, K. Morokuma, V. G. Zakrzewski, G. A. Voth, 
 P. Salvador, J. J. Dannenberg, S. Dapprich, A. D. Daniels, 
 O. Farkas, J. B. Foresman, J. V. Ortiz, J. Cioslowski, 
 and D. J. Fox, Gaussian, Inc., Wallingford CT, 2013.
 
 ******************************************
 Gaussian 09:  ES64L-G09RevD.01 24-Apr-2013
                28-Jan-2019 
 ******************************************
 %nproc=6
 Will use up to    6 processors via shared memory.
 -------------------------
 # opt(tight) b3lyp/sto-3g
 -------------------------
 1/7=10,14=-1,18=20,19=15,26=3,38=1/1,3;
 2/9=110,12=2,17=6,18=5,40=1/2;
 3/6=3,11=2,16=1,25=1,30=1,71=1,74=-5/1,2,3;
 4//1;
 5/5=2,38=5/2;
 6/7=2,8=2,9=2,10=2,28=1/1;
 7//1,2,3,16;
 1/7=10,14=-1,18=20,19=15,26=3/3(2);
 2/9=110/2;
 99//99;
 2/9=110/2;
 3/6=3,11=2,16=1,25=1,30=1,71=1,74=-5/1,2,3;
 4/5=5,16=3,69=1/1;
 5/5=2,38=5/2;
 7//1,2,3,16;
 1/7=10,14=-1,18=20,19=15,26=3/3(-5);
 2/9=110/2;
 6/7=2,8=2,9=2,10=2,19=2,28=1/1;
 99/9=1/99;
 ------
 c18h20
 ------
 Symbolic Z-matrix:
 Charge =  0 Multiplicity = 1
 C                     1.2736   -0.33518  -0.21943 
 C                     1.79307   0.51511  -1.10809 
 C                     3.25573   0.68442  -1.23173 
 C                     3.77273   1.5407   -2.12297 
 C                     5.23555   1.7126   -2.24563 
 C                     5.7515    2.5741   -3.13247 
 C                     7.21397   2.75061  -3.25251 
 C                     7.72825   3.62055  -4.13206 
 C                     9.1902    3.80363  -4.24824 
 C                     9.70236   4.68422  -5.11841 
 C                     11.16369   4.87477  -5.23003 
 C                     11.67362   5.7664   -6.09022 
 C                     13.13434   5.96394  -6.19746 
 C                     13.64235   6.865    -7.04894 
 C                     15.1026   7.06779  -7.15281 
 C                     15.60936   7.97505  -7.99839 
 C                     17.06904   8.18031  -8.10019 
 C                     17.57738   9.08605  -8.93915 
 H                     0.19695  -0.44677  -0.14172 
 H                     1.91375  -0.922     0.43284 
 H                     1.12515   1.08796  -1.74586 
 H                     3.91662   0.10656  -0.58951 
 H                     3.11119   2.11902  -2.7641 
 H                     5.89737   1.13353  -1.6055 
 H                     5.08929   3.15446  -3.77105 
 H                     7.87676   2.1691   -2.61561 
 H                     7.06491   4.20384  -4.76678 
 H                     9.85426   3.21885  -3.61567 
 H                     9.03767   5.27101  -5.74846 
 H                     11.82912   4.28638  -4.60227 
 H                     11.00758   6.35668  -6.71558 
 H                     13.80101   5.37225  -5.57414 
 H                     12.97521   7.45816  -7.67039 
 H                     15.77023   6.47368  -6.53279 
 H                     14.94191   8.57031  -8.61756 
 H                     17.74376   7.58984  -7.48611 
 H                     16.93007   9.69246  -9.56597 
 H                     18.65195   9.22433  -9.00094 
 

 GradGradGradGradGradGradGradGradGradGradGradGradGradGradGradGradGradGrad
 Berny optimization.
 Initialization pass.
                           ----------------------------
                           !    Initial Parameters    !
                           ! (Angstroms and Degrees)  !
 --------------------------                            --------------------------
 ! Name  Definition              Value          Derivative Info.                !
 --------------------------------------------------------------------------------
 ! R1    R(1,2)                  1.3351         estimate D2E/DX2                !
 ! R2    R(1,19)                 1.0852         estimate D2E/DX2                !
 ! R3    R(1,20)                 1.0861         estimate D2E/DX2                !
 ! R4    R(2,3)                  1.4776         estimate D2E/DX2                !
 ! R5    R(2,21)                 1.0867         estimate D2E/DX2                !
 ! R6    R(3,4)                  1.3397         estimate D2E/DX2                !
 ! R7    R(3,22)                 1.0877         estimate D2E/DX2                !
 ! R8    R(4,5)                  1.478          estimate D2E/DX2                !
 ! R9    R(4,23)                 1.0877         estimate D2E/DX2                !
 ! R10   R(5,6)                  1.3397         estimate D2E/DX2                !
 ! R11   R(5,24)                 1.0877         estimate D2E/DX2                !
 ! R12   R(6,7)                  1.478          estimate D2E/DX2                !
 ! R13   R(6,25)                 1.0877         estimate D2E/DX2                !
 ! R14   R(7,8)                  1.3397         estimate D2E/DX2                !
 ! R15   R(7,26)                 1.0877         estimate D2E/DX2                !
 ! R16   R(8,9)                  1.4779         estimate D2E/DX2                !
 ! R17   R(8,27)                 1.0877         estimate D2E/DX2                !
 ! R18   R(9,10)                 1.3398         estimate D2E/DX2                !
 ! R19   R(9,28)                 1.0877         estimate D2E/DX2                !
 ! R20   R(10,11)                1.4779         estimate D2E/DX2                !
 ! R21   R(10,29)                1.0877         estimate D2E/DX2                !
 ! R22   R(11,12)                1.3398         estimate D2E/DX2                !
 ! R23   R(11,30)                1.0877         estimate D2E/DX2                !
 ! R24   R(12,13)                1.4779         estimate D2E/DX2                !
 ! R25   R(12,31)                1.0877         estimate D2E/DX2                !
 ! R26   R(13,14)                1.3398         estimate D2E/DX2                !
 ! R27   R(13,32)                1.0877         estimate D2E/DX2                !
 ! R28   R(14,15)                1.4779         estimate D2E/DX2                !
 ! R29   R(14,33)                1.0877         estimate D2E/DX2                !
 ! R30   R(15,16)                1.3398         estimate D2E/DX2                !
 ! R31   R(15,34)                1.0877         estimate D2E/DX2                !
 ! R32   R(16,17)                1.4776         estimate D2E/DX2                !
 ! R33   R(16,35)                1.0877         estimate D2E/DX2                !
 ! R34   R(17,18)                1.3352         estimate D2E/DX2                !
 ! R35   R(17,36)                1.0867         estimate D2E/DX2                !
 ! R36   R(18,37)                1.0861         estimate D2E/DX2                !
 ! R37   R(18,38)                1.0852         estimate D2E/DX2                !
 ! A1    A(2,1,19)             119.9447         estimate D2E/DX2                !
 ! A2    A(2,1,20)             120.9646         estimate D2E/DX2                !
 ! A3    A(19,1,20)            119.0908         estimate D2E/DX2                !
 ! A4    A(1,2,3)              120.9181         estimate D2E/DX2                !
 ! A5    A(1,2,21)             119.156          estimate D2E/DX2                !
 ! A6    A(3,2,21)             119.9259         estimate D2E/DX2                !
 ! A7    A(2,3,4)              120.724          estimate D2E/DX2                !
 ! A8    A(2,3,22)             119.4172         estimate D2E/DX2                !
 ! A9    A(4,3,22)             119.8587         estimate D2E/DX2                !
 ! A10   A(3,4,5)              120.7634         estimate D2E/DX2                !
 ! A11   A(3,4,23)             119.8174         estimate D2E/DX2                !
 ! A12   A(5,4,23)             119.4191         estimate D2E/DX2                !
 ! A13   A(4,5,6)              120.7232         estimate D2E/DX2                !
 ! A14   A(4,5,24)             119.4361         estimate D2E/DX2                !
 ! A15   A(6,5,24)             119.8405         estimate D2E/DX2                !
 ! A16   A(5,6,7)              120.773          estimate D2E/DX2                !
 ! A17   A(5,6,25)             119.819          estimate D2E/DX2                !
 ! A18   A(7,6,25)             119.4077         estimate D2E/DX2                !
 ! A19   A(6,7,8)              120.7113         estimate D2E/DX2                !
 ! A20   A(6,7,26)             119.4429         estimate D2E/DX2                !
 ! A21   A(8,7,26)             119.8454         estimate D2E/DX2                !
 ! A22   A(7,8,9)              120.781          estimate D2E/DX2                !
 ! A23   A(7,8,27)             119.8154         estimate D2E/DX2                !
 ! A24   A(9,8,27)             119.4031         estimate D2E/DX2                !
 ! A25   A(8,9,10)             120.7051         estimate D2E/DX2                !
 ! A26   A(8,9,28)             119.4456         estimate D2E/DX2                !
 ! A27   A(10,9,28)            119.8487         estimate D2E/DX2                !
 ! A28   A(9,10,11)            120.7827         estimate D2E/DX2                !
 ! A29   A(9,10,29)            119.8148         estimate D2E/DX2                !
 ! A30   A(11,10,29)           119.4018         estimate D2E/DX2                !
 ! A31   A(10,11,12)           120.7062         estimate D2E/DX2                !
 ! A32   A(10,11,30)           119.4443         estimate D2E/DX2                !
 ! A33   A(12,11,30)           119.8489         estimate D2E/DX2                !
 ! A34   A(11,12,13)           120.7789         estimate D2E/DX2                !
 ! A35   A(11,12,31)           119.8172         estimate D2E/DX2                !
 ! A36   A(13,12,31)           119.4034         estimate D2E/DX2                !
 ! A37   A(12,13,14)           120.7154         estimate D2E/DX2                !
 ! A38   A(12,13,32)           119.4391         estimate D2E/DX2                !
 ! A39   A(14,13,32)           119.8451         estimate D2E/DX2                !
 ! A40   A(13,14,15)           120.7698         estimate D2E/DX2                !
 ! A41   A(13,14,33)           119.8216         estimate D2E/DX2                !
 ! A42   A(15,14,33)           119.4083         estimate D2E/DX2                !
 ! A43   A(14,15,16)           120.7307         estimate D2E/DX2                !
 ! A44   A(14,15,34)           119.4357         estimate D2E/DX2                !
 ! A45   A(16,15,34)           119.8334         estimate D2E/DX2                !
 ! A46   A(15,16,17)           120.746          estimate D2E/DX2                !
 ! A47   A(15,16,35)           119.8512         estimate D2E/DX2                !
 ! A48   A(17,16,35)           119.4027         estimate D2E/DX2                !
 ! A49   A(16,17,18)           120.9081         estimate D2E/DX2                !
 ! A50   A(16,17,36)           119.9303         estimate D2E/DX2                !
 ! A51   A(18,17,36)           119.1616         estimate D2E/DX2                !
 ! A52   A(17,18,37)           120.9632         estimate D2E/DX2                !
 ! A53   A(17,18,38)           119.9491         estimate D2E/DX2                !
 ! A54   A(37,18,38)           119.0877         estimate D2E/DX2                !
 ! D1    D(19,1,2,3)           179.9735         estimate D2E/DX2                !
 ! D2    D(19,1,2,21)            0.0086         estimate D2E/DX2                !
 ! D3    D(20,1,2,3)            -0.0084         estimate D2E/DX2                !
 ! D4    D(20,1,2,21)         -179.9732         estimate D2E/DX2                !
 ! D5    D(1,2,3,4)           -179.8668         estimate D2E/DX2                !
 ! D6    D(1,2,3,22)             0.0613         estimate D2E/DX2                !
 ! D7    D(21,2,3,4)             0.0978         estimate D2E/DX2                !
 ! D8    D(21,2,3,22)         -179.9742         estimate D2E/DX2                !
 ! D9    D(2,3,4,5)            179.8848         estimate D2E/DX2                !
 ! D10   D(2,3,4,23)            -0.0055         estimate D2E/DX2                !
 ! D11   D(22,3,4,5)            -0.0429         estimate D2E/DX2                !
 ! D12   D(22,3,4,23)         -179.9333         estimate D2E/DX2                !
 ! D13   D(3,4,5,6)           -179.6595         estimate D2E/DX2                !
 ! D14   D(3,4,5,24)             0.1842         estimate D2E/DX2                !
 ! D15   D(23,4,5,6)             0.2313         estimate D2E/DX2                !
 ! D16   D(23,4,5,24)         -179.9251         estimate D2E/DX2                !
 ! D17   D(4,5,6,7)            179.7674         estimate D2E/DX2                !
 ! D18   D(4,5,6,25)            -0.0347         estimate D2E/DX2                !
 ! D19   D(24,5,6,7)            -0.0756         estimate D2E/DX2                !
 ! D20   D(24,5,6,25)         -179.8778         estimate D2E/DX2                !
 ! D21   D(5,6,7,8)           -179.4435         estimate D2E/DX2                !
 ! D22   D(5,6,7,26)             0.3185         estimate D2E/DX2                !
 ! D23   D(25,6,7,8)             0.3595         estimate D2E/DX2                !
 ! D24   D(25,6,7,26)         -179.8785         estimate D2E/DX2                !
 ! D25   D(6,7,8,9)            179.6652         estimate D2E/DX2                !
 ! D26   D(6,7,8,27)            -0.0683         estimate D2E/DX2                !
 ! D27   D(26,7,8,9)            -0.0959         estimate D2E/DX2                !
 ! D28   D(26,7,8,27)         -179.8293         estimate D2E/DX2                !
 ! D29   D(7,8,9,10)          -179.2915         estimate D2E/DX2                !
 ! D30   D(7,8,9,28)             0.4221         estimate D2E/DX2                !
 ! D31   D(27,8,9,10)            0.443          estimate D2E/DX2                !
 ! D32   D(27,8,9,28)         -179.8434         estimate D2E/DX2                !
 ! D33   D(8,9,10,11)          179.6147         estimate D2E/DX2                !
 ! D34   D(8,9,10,29)           -0.092          estimate D2E/DX2                !
 ! D35   D(28,9,10,11)          -0.0978         estimate D2E/DX2                !
 ! D36   D(28,9,10,29)        -179.8044         estimate D2E/DX2                !
 ! D37   D(9,10,11,12)        -179.2565         estimate D2E/DX2                !
 ! D38   D(9,10,11,30)           0.46           estimate D2E/DX2                !
 ! D39   D(29,10,11,12)          0.4514         estimate D2E/DX2                !
 ! D40   D(29,10,11,30)       -179.8322         estimate D2E/DX2                !
 ! D41   D(10,11,12,13)        179.6366         estimate D2E/DX2                !
 ! D42   D(10,11,12,31)         -0.0991         estimate D2E/DX2                !
 ! D43   D(30,11,12,13)         -0.0787         estimate D2E/DX2                !
 ! D44   D(30,11,12,31)       -179.8144         estimate D2E/DX2                !
 ! D45   D(11,12,13,14)       -179.3584         estimate D2E/DX2                !
 ! D46   D(11,12,13,32)          0.4124         estimate D2E/DX2                !
 ! D47   D(31,12,13,14)          0.3784         estimate D2E/DX2                !
 ! D48   D(31,12,13,32)       -179.8508         estimate D2E/DX2                !
 ! D49   D(12,13,14,15)        179.725          estimate D2E/DX2                !
 ! D50   D(12,13,14,33)         -0.0855         estimate D2E/DX2                !
 ! D51   D(32,13,14,15)         -0.0448         estimate D2E/DX2                !
 ! D52   D(32,13,14,33)       -179.8553         estimate D2E/DX2                !
 ! D53   D(13,14,15,16)       -179.572          estimate D2E/DX2                !
 ! D54   D(13,14,15,34)          0.2921         estimate D2E/DX2                !
 ! D55   D(33,14,15,16)          0.2392         estimate D2E/DX2                !
 ! D56   D(33,14,15,34)       -179.8967         estimate D2E/DX2                !
 ! D57   D(14,15,16,17)        179.8544         estimate D2E/DX2                !
 ! D58   D(14,15,16,35)         -0.0514         estimate D2E/DX2                !
 ! D59   D(34,15,16,17)         -0.0091         estimate D2E/DX2                !
 ! D60   D(34,15,16,35)       -179.9149         estimate D2E/DX2                !
 ! D61   D(15,16,17,18)       -179.8191         estimate D2E/DX2                !
 ! D62   D(15,16,17,36)          0.135          estimate D2E/DX2                !
 ! D63   D(35,16,17,18)          0.0871         estimate D2E/DX2                !
 ! D64   D(35,16,17,36)       -179.9588         estimate D2E/DX2                !
 ! D65   D(16,17,18,37)         -0.0105         estimate D2E/DX2                !
 ! D66   D(16,17,18,38)        179.965          estimate D2E/DX2                !
 ! D67   D(36,17,18,37)       -179.9649         estimate D2E/DX2                !
 ! D68   D(36,17,18,38)          0.0105         estimate D2E/DX2                !
 --------------------------------------------------------------------------------
 Trust Radius=3.00D-01 FncErr=1.00D-07 GrdErr=1.00D-06
 Number of steps in this run=    169 maximum allowed number of steps=    228.
 GradGradGradGradGradGradGradGradGradGradGradGradGradGradGradGradGradGrad

                          Input orientation:                          
 ---------------------------------------------------------------------
 Center     Atomic      Atomic             Coordinates (Angstroms)
 Number     Number       Type             X           Y           Z
 ---------------------------------------------------------------------
      1          6           0        1.273600   -0.335180   -0.219430
      2          6           0        1.793070    0.515110   -1.108090
      3          6           0        3.255730    0.684420   -1.231730
      4          6           0        3.772730    1.540700   -2.122970
      5          6           0        5.235550    1.712600   -2.245630
      6          6           0        5.751500    2.574100   -3.132470
      7          6           0        7.213970    2.750610   -3.252510
      8          6           0        7.728250    3.620550   -4.132060
      9          6           0        9.190200    3.803630   -4.248240
     10          6           0        9.702360    4.684220   -5.118410
     11          6           0       11.163690    4.874770   -5.230030
     12          6           0       11.673620    5.766400   -6.090220
     13          6           0       13.134340    5.963940   -6.197460
     14          6           0       13.642350    6.865000   -7.048940
     15          6           0       15.102600    7.067790   -7.152810
     16          6           0       15.609360    7.975050   -7.998390
     17          6           0       17.069040    8.180310   -8.100190
     18          6           0       17.577380    9.086050   -8.939150
     19          1           0        0.196950   -0.446770   -0.141720
     20          1           0        1.913750   -0.922000    0.432840
     21          1           0        1.125150    1.087960   -1.745860
     22          1           0        3.916620    0.106560   -0.589510
     23          1           0        3.111190    2.119020   -2.764100
     24          1           0        5.897370    1.133530   -1.605500
     25          1           0        5.089290    3.154460   -3.771050
     26          1           0        7.876760    2.169100   -2.615610
     27          1           0        7.064910    4.203840   -4.766780
     28          1           0        9.854260    3.218850   -3.615670
     29          1           0        9.037670    5.271010   -5.748460
     30          1           0       11.829120    4.286380   -4.602270
     31          1           0       11.007580    6.356680   -6.715580
     32          1           0       13.801010    5.372250   -5.574140
     33          1           0       12.975210    7.458160   -7.670390
     34          1           0       15.770230    6.473680   -6.532790
     35          1           0       14.941910    8.570310   -8.617560
     36          1           0       17.743760    7.589840   -7.486110
     37          1           0       16.930070    9.692460   -9.565970
     38          1           0       18.651950    9.224330   -9.000940
 ---------------------------------------------------------------------
                    Distance matrix (angstroms):
                    1          2          3          4          5
     1  C    0.000000
     2  C    1.335125   0.000000
     3  C    2.448096   1.477609   0.000000
     4  C    3.658967   2.449667   1.339706   0.000000
     5  C    4.898565   3.818200   2.450476   1.477984   0.000000
     6  C    6.082869   4.899666   3.662318   2.450007   1.339728
     7  C    7.349127   6.243569   4.901057   3.818622   2.450595
     8  C    8.521677   7.349457   6.085738   4.899832   3.662300
     9  C    9.799674   8.682882   7.351649   6.243926   4.901236
    10  C   10.965326   9.799031   8.524302   7.349482   6.085703
    11  C   12.250044  11.126794   9.802105   8.683095   7.351789
    12  C   13.411035  12.248385  10.967785   9.798963   8.524254
    13  C   14.700099  13.572614  12.252295  11.126826   9.802129
    14  C   15.857830  14.697627  13.413477  12.248377  10.967830
    15  C   17.149839  16.019358  14.702208  13.572545  12.252230
    16  C   18.305359  17.146918  15.860427  14.697865  13.413742
    17  C   19.598874  18.466186  17.151433  16.018846  14.701654
    18  C   20.751056  19.594156  18.305774  17.145290  15.858491
    19  H    1.085203   2.099210   3.438582   4.545502   5.871695
    20  H    1.086097   2.110525   2.674376   4.006602   5.014945
    21  H    2.092213   1.086750   2.228575   2.712354   4.187521
    22  H    2.705115   2.223804   1.087724   2.104510   2.657381
    23  H    3.984367   2.655624   2.104074   1.087721   2.224161
    24  H    5.045547   4.180328   2.705488   2.224333   1.087701
    25  H    6.273044   4.992253   3.988883   2.655884   2.104105
    26  H    7.457534   6.482251   5.047110   4.180986   2.705784
    27  H    8.649877   7.401692   6.276364   4.992043   3.988613
    28  H    9.889050   8.864590   7.459699   6.483005   5.047601
    29  H   11.058043   9.830353   8.652658   7.401283   6.276003
    30  H   12.328305  11.276261   9.891293   8.865163   7.460111
    31  H   13.480776  12.266828  11.060666   9.829994   8.652414
    32  H   14.771042  13.701388  12.330256  11.276425   9.891366
    33  H   15.911651  14.707480  13.483627  12.266859  11.060824
    34  H   17.215440  16.133596  14.772592  13.701124  12.329927
    35  H   18.348271  17.151396  15.915544  14.708695  13.484921
    36  H   19.669183  18.578360  17.225130  16.141408  14.780389
    37  H   20.809527  19.618569  18.373675  17.174546  15.938235
    38  H   21.691155  20.551628  19.244071  18.103476  16.794645
                    6          7          8          9         10
     6  C    0.000000
     7  C    1.477966   0.000000
     8  C    2.449853   1.339734   0.000000
     9  C    3.818553   2.450676   1.477942   0.000000
    10  C    4.899577   3.662310   2.449774   1.339755   0.000000
    11  C    6.243768   4.901319   3.818488   2.450697   1.477922
    12  C    7.349188   6.085726   4.899491   3.662340   2.449774
    13  C    8.682828   7.351803   6.243650   4.901289   3.818445
    14  C    9.798779   8.524386   7.349233   6.085848   4.899619
    15  C   11.126520   9.802085   8.682709   7.351717   6.243619
    16  C   12.248463  10.968169   9.799085   8.524669   7.349592
    17  C   13.571829  12.251696  11.125998   9.801478   8.682260
    18  C   14.696070  13.411784  12.246843  10.966010   9.797454
    19  H    6.994517   8.314976   9.443854  10.761410  11.893163
    20  H    6.297815   7.427126   8.676490   9.858540  11.086412
    21  H    5.053159   6.489078   7.463839   8.870276   9.893215
    22  H    3.990261   4.995507   6.279037   7.407110   8.656829
    23  H    2.704447   4.179743   5.044120   6.480351   7.454297
    24  H    2.104319   2.657259   3.990100   4.995622   6.279004
    25  H    1.087715   2.224015   2.704011   4.179306   5.043408
    26  H    2.224387   1.087698   2.104372   2.657498   3.990320
    27  H    2.655573   2.104070   1.087712   2.223940   2.703803
    28  H    4.181127   2.705968   2.224397   1.087699   2.104426
    29  H    4.991557   3.988491   2.655437   2.104075   1.087703
    30  H    6.483030   5.047777   4.181096   2.705972   2.224362
    31  H    7.400876   6.275992   4.991492   3.988571   2.655499
    32  H    8.864875   7.460031   6.482782   5.047588   4.180910
    33  H    9.829992   8.652779   7.401190   6.276384   4.991883
    34  H   11.275808   9.890959   8.864384   7.459566   6.482413
    35  H   12.268023  11.062266   9.831415   8.654153   7.402610
    36  H   13.708615  12.337666  11.283411   9.898615   8.872020
    37  H   14.731646  13.507467  12.291011  11.084320   9.854088
    38  H   15.655226  14.345065  13.207406  11.895245  10.760195
                   11         12         13         14         15
    11  C    0.000000
    12  C    1.339761   0.000000
    13  C    2.450648   1.477913   0.000000
    14  C    3.662404   2.449891   1.339777   0.000000
    15  C    4.901166   3.818457   2.450556   1.477918   0.000000
    16  C    6.086011   4.899928   3.662463   2.450060   1.339751
    17  C    7.351025   6.243196   4.900463   3.818032   2.449922
    18  C    8.522199   7.347847   6.083177   4.898001   3.659087
    19  H   13.209053  14.342318  15.657115  16.791380  18.105314
    20  H   12.297643  13.510739  14.740376  15.942850  17.185011
    21  H   11.280588  12.330105  13.704473  14.770821  16.135755
    22  H    9.838205  11.066284  12.276985  13.490388  14.719435
    23  H    8.861023   9.883403  11.270976  12.320289  13.694708
    24  H    7.407309   8.656862   9.838328  11.066413  12.276985
    25  H    6.479693   7.453468   8.860219   9.882687  11.270174
    26  H    4.995973   6.279302   7.407605   8.657247   9.838501
    27  H    4.179084   5.043143   6.479412   7.453371   8.860012
    28  H    2.657600   3.990423   4.996007   6.279441   7.407481
    29  H    2.223901   2.703783   4.179050   5.043325   6.479506
    30  H    1.087696   2.104432   2.657525   3.990398   4.995715
    31  H    2.104112   1.087711   2.223916   2.703984   4.179239
    32  H    2.705800   2.224293   1.087692   2.104403   2.657290
    33  H    3.988843   2.655772   2.104172   1.087711   2.223975
    34  H    5.047168   4.180709   2.705586   2.224279   1.087714
    35  H    6.277525   4.993103   3.989656   2.656597   2.104490
    36  H    7.467183   6.489996   5.054792   4.187848   2.712812
    37  H    8.675347   7.424625   6.297324   5.013888   4.006480
    38  H    9.445235   8.314244   6.995260   5.871357   4.545782
                   16         17         18         19         20
    16  C    0.000000
    17  C    1.477552   0.000000
    18  C    2.447949   1.335151   0.000000
    19  H   19.240496  20.553131  21.687526   0.000000
    20  H   18.379686  19.630269  20.816930   1.871728   0.000000
    21  H   17.213904  18.571122  19.656773   2.406287   3.067338
    22  H   15.922462  17.163389  18.356582   3.787167   2.472776
    23  H   14.761271  16.125591  17.202947   4.685398   4.571880
    24  H   13.490670  14.718842  15.920039   6.093832   4.924354
    25  H   12.319917  13.693613  14.759587   7.076432   6.661402
    26  H   11.066909  12.276534  13.488268   8.481886   7.376004
    27  H    9.882963  11.269718  12.318956   9.496748   8.935588
    28  H    8.657416   9.837685  11.063908  10.898107   9.827959
    29  H    7.453934   8.859885   9.882392  11.928406  11.283265
    30  H    6.279342   7.406409   8.653777  13.326912  12.279826
    31  H    5.043917   6.479511   7.453589  14.365664  13.666632
    32  H    3.990199   4.994612   6.275076  15.762063  14.731203
    33  H    2.704349   4.179195   5.043783  16.806330  16.070013
    34  H    2.104275   2.656358   3.985077  18.200699  17.181913
    35  H    1.087748   2.223613   2.704646  19.249972  18.486391
    36  H    2.228560   1.086736   2.092284  20.649884  19.640530
    37  H    2.674150   2.110550   1.086115  21.716763  20.931623
    38  H    3.438482   2.099269   1.085191  22.640737  21.728128
                   21         22         23         24         25
    21  H    0.000000
    22  H    3.176885   0.000000
    23  H    2.458506   3.070432   0.000000
    24  H    4.774501   2.451586   3.174326   0.000000
    25  H    4.907772   4.559281   2.449278   3.070303   0.000000
    26  H    6.892718   4.903250   4.768146   2.451675   3.174266
    27  H    7.356318   6.644473   4.897867   4.558908   2.448622
    28  H    9.177921   7.355240   6.885041   4.903705   4.767938
    29  H    9.804422   8.916920   7.346061   6.644121   4.896901
    30  H   11.530999   9.807181   9.169440   7.355729   6.884583
    31  H   12.252345  11.263856   9.794127   8.916752   7.345109
    32  H   13.917194  12.258678  11.521809   9.807363   9.168631
    33  H   14.700457  13.647085  12.242426  11.264087   9.793591
    34  H   16.321735  14.709550  13.907458  12.258416  11.520716
    35  H   17.149597  16.051220  14.691769  13.648384  12.243129
    36  H   18.745749  17.168354  16.319907  14.717421  13.914377
    37  H   19.621087  18.488272  17.163446  16.073109  14.714979
    38  H   20.640383  19.261771  18.190625  16.817636  15.752486
                   26         27         28         29         30
    26  H    0.000000
    27  H    3.070309   0.000000
    28  H    2.452061   3.174230   0.000000
    29  H    4.558981   2.448332   3.070338   0.000000
    30  H    4.904166   4.767764   2.452157   3.174183   0.000000
    31  H    6.644367   4.896651   4.559119   2.448376   3.070366
    32  H    7.355937   6.884189   4.904036   4.767604   2.451937
    33  H    8.917351   7.345284   6.644760   4.897107   4.559284
    34  H    9.807170   9.168073   7.355420   6.883963   4.903421
    35  H   11.265666   9.794983   8.918588   7.346915   6.645605
    36  H   12.266372  11.528122   9.814788   9.175642   7.362903
    37  H   13.670072  12.266970  11.286310   9.818991   8.937769
    38  H   14.375445  13.318894  11.935924  10.892279   9.501719
                   31         32         33         34         35
    31  H    0.000000
    32  H    3.174152   0.000000
    33  H    2.448773   3.070379   0.000000
    34  H    4.767592   2.451527   3.174188   0.000000
    35  H    4.898636   4.559786   2.449881   3.070543   0.000000
    36  H    6.891337   4.911070   4.773926   2.459564   3.176769
    37  H    7.370756   6.662577   4.922016   4.572303   2.472141
    38  H    8.478365   7.079060   6.092216   4.686379   3.786703
                   36         37         38
    36  H    0.000000
    37  H    3.067396   0.000000
    38  H    2.406466   1.871704   0.000000
 Stoichiometry    C18H20
 Framework group  C1[X(C18H20)]
 Deg. of freedom   108
 Full point group                 C1      NOp   1
 Largest Abelian subgroup         C1      NOp   1
 Largest concise Abelian subgroup C1      NOp   1
                         Standard orientation:                         
 ---------------------------------------------------------------------
 Center     Atomic      Atomic             Coordinates (Angstroms)
 Number     Number       Type             X           Y           Z
 ---------------------------------------------------------------------
      1          6           0       10.372795    0.267524    0.097724
      2          6           0        9.223134   -0.410326    0.060886
      3          6           0        7.925498    0.296156    0.042142
      4          6           0        6.774143   -0.387964    0.007847
      5          6           0        5.475637    0.317768   -0.008373
      6          6           0        4.324613   -0.367257   -0.035828
      7          6           0        3.025423    0.337276   -0.046916
      8          6           0        1.874980   -0.349094   -0.063190
      9          6           0        0.574884    0.353792   -0.066875
     10          6           0       -0.574741   -0.334177   -0.068912
     11          6           0       -1.875777    0.366921   -0.064059
     12          6           0       -3.024424   -0.322573   -0.051158
     13          6           0       -4.326268    0.376899   -0.038235
     14          6           0       -5.473993   -0.313799   -0.012443
     15          6           0       -6.776402    0.384492    0.006598
     16          6           0       -7.923461   -0.306888    0.040986
     17          6           0       -9.225660    0.390924    0.063258
     18          6           0      -10.370640   -0.294797    0.101152
     19          1           0       11.316866   -0.267460    0.111471
     20          1           0       10.380929    1.353459    0.114624
     21          1           0        9.249277   -1.496648    0.045211
     22          1           0        7.908994    1.383645    0.057625
     23          1           0        6.791407   -1.475453   -0.006521
     24          1           0        5.458074    1.405248    0.004750
     25          1           0        4.342550   -1.454768   -0.046931
     26          1           0        3.006846    1.424777   -0.037830
     27          1           0        1.894098   -1.436620   -0.069459
     28          1           0        0.554972    1.441302   -0.063200
     29          1           0       -0.554188   -1.421686   -0.069366
     30          1           0       -1.897147    1.454404   -0.066377
     31          1           0       -3.002423   -1.410048   -0.045789
     32          1           0       -4.348980    1.464325   -0.046061
     33          1           0       -5.450793   -1.401215   -0.002242
     34          1           0       -6.800157    1.471881   -0.005300
     35          1           0       -7.900012   -1.394302    0.054293
     36          1           0       -9.259103    1.477059    0.049529
     37          1           0      -10.371338   -1.380807    0.116305
     38          1           0      -11.318324    0.233657    0.117644
 ---------------------------------------------------------------------
 Rotational constants (GHZ):      7.9208615      0.0520753      0.0517433
 Standard basis: STO-3G (5D, 7F)
 There are   110 symmetry adapted cartesian basis functions of A   symmetry.
 There are   110 symmetry adapted basis functions of A   symmetry.
   110 basis functions,   330 primitive gaussians,   110 cartesian basis functions
    64 alpha electrons       64 beta electrons
       nuclear repulsion energy       940.2133815617 Hartrees.
 NAtoms=   38 NActive=   38 NUniq=   38 SFac= 1.00D+00 NAtFMM=   60 NAOKFM=F Big=F
 Integral buffers will be    131072 words long.
 Raffenetti 2 integral format.
 Two-electron integral symmetry is turned on.
 One-electron integrals computed using PRISM.
 NBasis=   110 RedAO= T EigKep=  1.83D-01  NBF=   110
 NBsUse=   110 1.00D-06 EigRej= -1.00D+00 NBFU=   110
 ExpMin= 1.69D-01 ExpMax= 7.16D+01 ExpMxC= 7.16D+01 IAcc=1 IRadAn=         1 AccDes= 0.00D+00
 Harris functional with IExCor=  402 and IRadAn=       1 diagonalized for initial guess.
 HarFok:  IExCor=  402 AccDes= 0.00D+00 IRadAn=         1 IDoV= 1 UseB2=F ITyADJ=14
 ICtDFT=  3500011 ScaDFX=  1.000000  1.000000  1.000000  1.000000
 FoFCou: FMM=F IPFlag=           0 FMFlag=      100000 FMFlg1=           0
         NFxFlg=           0 DoJE=T BraDBF=F KetDBF=T FulRan=T
         wScrn=  0.000000 ICntrl=     500 IOpCl=  0 I1Cent=   200000004 NGrid=           0
         NMat0=    1 NMatS0=      1 NMatT0=    0 NMatD0=    1 NMtDS0=    0 NMtDT0=    0
 Petite list used in FoFCou.
 Keep R1 ints in memory in canonical form, NReq=19629595.
 Requested convergence on RMS density matrix=1.00D-08 within 128 cycles.
 Requested convergence on MAX density matrix=1.00D-06.
 Requested convergence on             energy=1.00D-06.
 No special actions if energy rises.
 Integral accuracy reduced to 1.0D-05 until final iterations.
 Initial convergence to 1.0D-05 achieved.  Increase integral accuracy.
 SCF Done:  E(RB3LYP) =  -689.253280440     A.U. after   13 cycles
            NFock= 13  Conv=0.32D-08     -V/T= 2.0159

 **********************************************************************

            Population analysis using the SCF density.

 **********************************************************************

 Orbital symmetries:
       Occupied  (A) (A) (A) (A) (A) (A) (A) (A) (A) (A) (A) (A)
                 (A) (A) (A) (A) (A) (A) (A) (A) (A) (A) (A) (A)
                 (A) (A) (A) (A) (A) (A) (A) (A) (A) (A) (A) (A)
                 (A) (A) (A) (A) (A) (A) (A) (A) (A) (A) (A) (A)
                 (A) (A) (A) (A) (A) (A) (A) (A) (A) (A) (A) (A)
                 (A) (A) (A) (A)
       Virtual   (A) (A) (A) (A) (A) (A) (A) (A) (A) (A) (A) (A)
                 (A) (A) (A) (A) (A) (A) (A) (A) (A) (A) (A) (A)
                 (A) (A) (A) (A) (A) (A) (A) (A) (A) (A) (A) (A)
                 (A) (A) (A) (A) (A) (A) (A) (A) (A) (A)
 The electronic state is 1-A.
 Alpha  occ. eigenvalues --  -10.00517 -10.00512 -10.00378 -10.00373 -10.00368
 Alpha  occ. eigenvalues --  -10.00362 -10.00354 -10.00345 -10.00290 -10.00285
 Alpha  occ. eigenvalues --  -10.00278 -10.00271 -10.00263 -10.00255 -10.00248
 Alpha  occ. eigenvalues --  -10.00241  -9.98750  -9.98744  -0.78703  -0.78128
 Alpha  occ. eigenvalues --   -0.77181  -0.75876  -0.74231  -0.72277  -0.70064
 Alpha  occ. eigenvalues --   -0.67711  -0.65560  -0.58764  -0.56388  -0.53599
 Alpha  occ. eigenvalues --   -0.53454  -0.53024  -0.52208  -0.51480  -0.50850
 Alpha  occ. eigenvalues --   -0.50480  -0.44579  -0.43999  -0.43052  -0.42493
 Alpha  occ. eigenvalues --   -0.40936  -0.40091  -0.37865  -0.37124  -0.36196
 Alpha  occ. eigenvalues --   -0.35094  -0.34343  -0.33814  -0.33316  -0.33055
 Alpha  occ. eigenvalues --   -0.32863  -0.32148  -0.31111  -0.30427  -0.29628
 Alpha  occ. eigenvalues --   -0.29467  -0.28302  -0.28031  -0.26463  -0.24129
 Alpha  occ. eigenvalues --   -0.21341  -0.18181  -0.14847  -0.11897
 Alpha virt. eigenvalues --    0.00873   0.04101   0.07950   0.11790   0.15327
 Alpha virt. eigenvalues --    0.18383   0.20843   0.22634   0.23718   0.32265
 Alpha virt. eigenvalues --    0.33922   0.36173   0.38489   0.40455   0.40994
 Alpha virt. eigenvalues --    0.41311   0.41447   0.41570   0.41801   0.41813
 Alpha virt. eigenvalues --    0.41930   0.42154   0.42571   0.43385   0.43756
 Alpha virt. eigenvalues --    0.44379   0.45221   0.45774   0.55112   0.55277
 Alpha virt. eigenvalues --    0.56621   0.57857   0.60731   0.61519   0.64263
 Alpha virt. eigenvalues --    0.64319   0.67505   0.67533   0.70174   0.70578
 Alpha virt. eigenvalues --    0.71820   0.73492   0.76030   0.78215   0.79870
 Alpha virt. eigenvalues --    0.80892
          Condensed to atoms (all electrons):
               1          2          3          4          5          6
     1  C    4.856754   0.583361  -0.031674   0.000871  -0.000009   0.000000
     2  C    0.583361   4.793079   0.423644  -0.031168   0.001024  -0.000009
     3  C   -0.031674   0.423644   4.816473   0.568038  -0.031154   0.000877
     4  C    0.000871  -0.031168   0.568038   4.812661   0.428052  -0.031176
     5  C   -0.000009   0.001024  -0.031154   0.428052   4.815270   0.565539
     6  C    0.000000  -0.000009   0.000877  -0.031176   0.565539   4.814242
     7  C    0.000000   0.000000  -0.000009   0.001017  -0.031147   0.429135
     8  C    0.000000   0.000000   0.000000  -0.000009   0.000881  -0.031201
     9  C    0.000000   0.000000   0.000000   0.000000  -0.000009   0.001016
    10  C    0.000000   0.000000   0.000000   0.000000   0.000000  -0.000009
    11  C    0.000000   0.000000   0.000000   0.000000   0.000000   0.000000
    12  C    0.000000   0.000000   0.000000   0.000000   0.000000   0.000000
    13  C    0.000000   0.000000   0.000000   0.000000   0.000000   0.000000
    14  C    0.000000   0.000000   0.000000   0.000000   0.000000   0.000000
    15  C    0.000000   0.000000   0.000000   0.000000   0.000000   0.000000
    16  C    0.000000   0.000000   0.000000   0.000000   0.000000   0.000000
    17  C    0.000000   0.000000   0.000000   0.000000   0.000000   0.000000
    18  C    0.000000   0.000000   0.000000   0.000000   0.000000   0.000000
    19  H    0.390697  -0.026103   0.001664  -0.000027   0.000000   0.000000
    20  H    0.390304  -0.025519  -0.005366   0.000047  -0.000001   0.000000
    21  H   -0.028218   0.390272  -0.022683  -0.003341   0.000008   0.000000
    22  H   -0.003325  -0.022730   0.389872  -0.027465  -0.005229   0.000047
    23  H    0.000047  -0.005247  -0.027521   0.389789  -0.022720  -0.003402
    24  H    0.000000   0.000008  -0.003389  -0.022693   0.389828  -0.027511
    25  H    0.000000  -0.000001   0.000047  -0.005254  -0.027540   0.389811
    26  H    0.000000   0.000000   0.000000   0.000008  -0.003387  -0.022688
    27  H    0.000000   0.000000   0.000000  -0.000001   0.000047  -0.005259
    28  H    0.000000   0.000000   0.000000   0.000000   0.000000   0.000008
    29  H    0.000000   0.000000   0.000000   0.000000   0.000000  -0.000001
    30  H    0.000000   0.000000   0.000000   0.000000   0.000000   0.000000
    31  H    0.000000   0.000000   0.000000   0.000000   0.000000   0.000000
    32  H    0.000000   0.000000   0.000000   0.000000   0.000000   0.000000
    33  H    0.000000   0.000000   0.000000   0.000000   0.000000   0.000000
    34  H    0.000000   0.000000   0.000000   0.000000   0.000000   0.000000
    35  H    0.000000   0.000000   0.000000   0.000000   0.000000   0.000000
    36  H    0.000000   0.000000   0.000000   0.000000   0.000000   0.000000
    37  H    0.000000   0.000000   0.000000   0.000000   0.000000   0.000000
    38  H    0.000000   0.000000   0.000000   0.000000   0.000000   0.000000
               7          8          9         10         11         12
     1  C    0.000000   0.000000   0.000000   0.000000   0.000000   0.000000
     2  C    0.000000   0.000000   0.000000   0.000000   0.000000   0.000000
     3  C   -0.000009   0.000000   0.000000   0.000000   0.000000   0.000000
     4  C    0.001017  -0.000009   0.000000   0.000000   0.000000   0.000000
     5  C   -0.031147   0.000881  -0.000009   0.000000   0.000000   0.000000
     6  C    0.429135  -0.031201   0.001016  -0.000009   0.000000   0.000000
     7  C    4.814980   0.564838  -0.031140   0.000883  -0.000009   0.000000
     8  C    0.564838   4.814679   0.429441  -0.031212   0.001015  -0.000009
     9  C   -0.031140   0.429441   4.814849   0.564673  -0.031137   0.000882
    10  C    0.000883  -0.031212   0.564673   4.814846   0.429448  -0.031213
    11  C   -0.000009   0.001015  -0.031137   0.429448   4.814672   0.564825
    12  C    0.000000  -0.000009   0.000882  -0.031213   0.564825   4.814966
    13  C    0.000000   0.000000  -0.000009   0.001016  -0.031137   0.429155
    14  C    0.000000   0.000000   0.000000  -0.000009   0.000881  -0.031203
    15  C    0.000000   0.000000   0.000000   0.000000  -0.000009   0.001017
    16  C    0.000000   0.000000   0.000000   0.000000   0.000000  -0.000009
    17  C    0.000000   0.000000   0.000000   0.000000   0.000000   0.000000
    18  C    0.000000   0.000000   0.000000   0.000000   0.000000   0.000000
    19  H    0.000000   0.000000   0.000000   0.000000   0.000000   0.000000
    20  H    0.000000   0.000000   0.000000   0.000000   0.000000   0.000000
    21  H    0.000000   0.000000   0.000000   0.000000   0.000000   0.000000
    22  H   -0.000001   0.000000   0.000000   0.000000   0.000000   0.000000
    23  H    0.000008   0.000000   0.000000   0.000000   0.000000   0.000000
    24  H   -0.005233   0.000047  -0.000001   0.000000   0.000000   0.000000
    25  H   -0.022717  -0.003407   0.000008   0.000000   0.000000   0.000000
    26  H    0.389815  -0.027516  -0.005229   0.000047  -0.000001   0.000000
    27  H   -0.027545   0.389824  -0.022718  -0.003410   0.000008   0.000000
    28  H   -0.003385  -0.022687   0.389809  -0.027515  -0.005228   0.000046
    29  H    0.000047  -0.005260  -0.027544   0.389831  -0.022719  -0.003410
    30  H    0.000000   0.000008  -0.003385  -0.022689   0.389806  -0.027514
    31  H    0.000000  -0.000001   0.000047  -0.005259  -0.027538   0.389833
    32  H    0.000000   0.000000   0.000000   0.000008  -0.003386  -0.022697
    33  H    0.000000   0.000000   0.000000  -0.000001   0.000047  -0.005255
    34  H    0.000000   0.000000   0.000000   0.000000   0.000000   0.000008
    35  H    0.000000   0.000000   0.000000   0.000000   0.000000  -0.000001
    36  H    0.000000   0.000000   0.000000   0.000000   0.000000   0.000000
    37  H    0.000000   0.000000   0.000000   0.000000   0.000000   0.000000
    38  H    0.000000   0.000000   0.000000   0.000000   0.000000   0.000000
              13         14         15         16         17         18
     1  C    0.000000   0.000000   0.000000   0.000000   0.000000   0.000000
     2  C    0.000000   0.000000   0.000000   0.000000   0.000000   0.000000
     3  C    0.000000   0.000000   0.000000   0.000000   0.000000   0.000000
     4  C    0.000000   0.000000   0.000000   0.000000   0.000000   0.000000
     5  C    0.000000   0.000000   0.000000   0.000000   0.000000   0.000000
     6  C    0.000000   0.000000   0.000000   0.000000   0.000000   0.000000
     7  C    0.000000   0.000000   0.000000   0.000000   0.000000   0.000000
     8  C    0.000000   0.000000   0.000000   0.000000   0.000000   0.000000
     9  C   -0.000009   0.000000   0.000000   0.000000   0.000000   0.000000
    10  C    0.001016  -0.000009   0.000000   0.000000   0.000000   0.000000
    11  C   -0.031137   0.000881  -0.000009   0.000000   0.000000   0.000000
    12  C    0.429155  -0.031203   0.001017  -0.000009   0.000000   0.000000
    13  C    4.814230   0.565515  -0.031132   0.000877  -0.000009   0.000000
    14  C    0.565515   4.815251   0.428076  -0.031186   0.001025  -0.000009
    15  C   -0.031132   0.428076   4.812643   0.568017  -0.031148   0.000871
    16  C    0.000877  -0.031186   0.568017   4.816450   0.423662  -0.031685
    17  C   -0.000009   0.001025  -0.031148   0.423662   4.793063   0.583349
    18  C    0.000000  -0.000009   0.000871  -0.031685   0.583349   4.856739
    19  H    0.000000   0.000000   0.000000   0.000000   0.000000   0.000000
    20  H    0.000000   0.000000   0.000000   0.000000   0.000000   0.000000
    21  H    0.000000   0.000000   0.000000   0.000000   0.000000   0.000000
    22  H    0.000000   0.000000   0.000000   0.000000   0.000000   0.000000
    23  H    0.000000   0.000000   0.000000   0.000000   0.000000   0.000000
    24  H    0.000000   0.000000   0.000000   0.000000   0.000000   0.000000
    25  H    0.000000   0.000000   0.000000   0.000000   0.000000   0.000000
    26  H    0.000000   0.000000   0.000000   0.000000   0.000000   0.000000
    27  H    0.000000   0.000000   0.000000   0.000000   0.000000   0.000000
    28  H   -0.000001   0.000000   0.000000   0.000000   0.000000   0.000000
    29  H    0.000008   0.000000   0.000000   0.000000   0.000000   0.000000
    30  H   -0.005229   0.000046  -0.000001   0.000000   0.000000   0.000000
    31  H   -0.022719  -0.003408   0.000008   0.000000   0.000000   0.000000
    32  H    0.389800  -0.027515  -0.005232   0.000046  -0.000001   0.000000
    33  H   -0.027525   0.389839  -0.022716  -0.003402   0.000008   0.000000
    34  H   -0.003389  -0.022711   0.389781  -0.027505  -0.005235   0.000047
    35  H    0.000047  -0.005240  -0.027468   0.389873  -0.022742  -0.003331
    36  H    0.000000   0.000008  -0.003335  -0.022682   0.390272  -0.028211
    37  H    0.000000  -0.000001   0.000047  -0.005369  -0.025518   0.390300
    38  H    0.000000   0.000000  -0.000027   0.001664  -0.026099   0.390697
              19         20         21         22         23         24
     1  C    0.390697   0.390304  -0.028218  -0.003325   0.000047   0.000000
     2  C   -0.026103  -0.025519   0.390272  -0.022730  -0.005247   0.000008
     3  C    0.001664  -0.005366  -0.022683   0.389872  -0.027521  -0.003389
     4  C   -0.000027   0.000047  -0.003341  -0.027465   0.389789  -0.022693
     5  C    0.000000  -0.000001   0.000008  -0.005229  -0.022720   0.389828
     6  C    0.000000   0.000000   0.000000   0.000047  -0.003402  -0.027511
     7  C    0.000000   0.000000   0.000000  -0.000001   0.000008  -0.005233
     8  C    0.000000   0.000000   0.000000   0.000000   0.000000   0.000047
     9  C    0.000000   0.000000   0.000000   0.000000   0.000000  -0.000001
    10  C    0.000000   0.000000   0.000000   0.000000   0.000000   0.000000
    11  C    0.000000   0.000000   0.000000   0.000000   0.000000   0.000000
    12  C    0.000000   0.000000   0.000000   0.000000   0.000000   0.000000
    13  C    0.000000   0.000000   0.000000   0.000000   0.000000   0.000000
    14  C    0.000000   0.000000   0.000000   0.000000   0.000000   0.000000
    15  C    0.000000   0.000000   0.000000   0.000000   0.000000   0.000000
    16  C    0.000000   0.000000   0.000000   0.000000   0.000000   0.000000
    17  C    0.000000   0.000000   0.000000   0.000000   0.000000   0.000000
    18  C    0.000000   0.000000   0.000000   0.000000   0.000000   0.000000
    19  H    0.583557  -0.022573  -0.005234   0.000011  -0.000002   0.000000
    20  H   -0.022573   0.582067   0.002149   0.000871   0.000002   0.000000
    21  H   -0.005234   0.002149   0.584236   0.001378   0.000849  -0.000001
    22  H    0.000011   0.000871   0.001378   0.583359   0.002084   0.000849
    23  H   -0.000002   0.000002   0.000849   0.002084   0.584118   0.001376
    24  H    0.000000   0.000000  -0.000001   0.000849   0.001376   0.584053
    25  H    0.000000   0.000000   0.000000   0.000001   0.000853   0.002086
    26  H    0.000000   0.000000   0.000000   0.000000  -0.000001   0.000850
    27  H    0.000000   0.000000   0.000000   0.000000   0.000000   0.000001
    28  H    0.000000   0.000000   0.000000   0.000000   0.000000   0.000000
    29  H    0.000000   0.000000   0.000000   0.000000   0.000000   0.000000
    30  H    0.000000   0.000000   0.000000   0.000000   0.000000   0.000000
    31  H    0.000000   0.000000   0.000000   0.000000   0.000000   0.000000
    32  H    0.000000   0.000000   0.000000   0.000000   0.000000   0.000000
    33  H    0.000000   0.000000   0.000000   0.000000   0.000000   0.000000
    34  H    0.000000   0.000000   0.000000   0.000000   0.000000   0.000000
    35  H    0.000000   0.000000   0.000000   0.000000   0.000000   0.000000
    36  H    0.000000   0.000000   0.000000   0.000000   0.000000   0.000000
    37  H    0.000000   0.000000   0.000000   0.000000   0.000000   0.000000
    38  H    0.000000   0.000000   0.000000   0.000000   0.000000   0.000000
              25         26         27         28         29         30
     1  C    0.000000   0.000000   0.000000   0.000000   0.000000   0.000000
     2  C   -0.000001   0.000000   0.000000   0.000000   0.000000   0.000000
     3  C    0.000047   0.000000   0.000000   0.000000   0.000000   0.000000
     4  C   -0.005254   0.000008  -0.000001   0.000000   0.000000   0.000000
     5  C   -0.027540  -0.003387   0.000047   0.000000   0.000000   0.000000
     6  C    0.389811  -0.022688  -0.005259   0.000008  -0.000001   0.000000
     7  C   -0.022717   0.389815  -0.027545  -0.003385   0.000047   0.000000
     8  C   -0.003407  -0.027516   0.389824  -0.022687  -0.005260   0.000008
     9  C    0.000008  -0.005229  -0.022718   0.389809  -0.027544  -0.003385
    10  C    0.000000   0.000047  -0.003410  -0.027515   0.389831  -0.022689
    11  C    0.000000  -0.000001   0.000008  -0.005228  -0.022719   0.389806
    12  C    0.000000   0.000000   0.000000   0.000046  -0.003410  -0.027514
    13  C    0.000000   0.000000   0.000000  -0.000001   0.000008  -0.005229
    14  C    0.000000   0.000000   0.000000   0.000000   0.000000   0.000046
    15  C    0.000000   0.000000   0.000000   0.000000   0.000000  -0.000001
    16  C    0.000000   0.000000   0.000000   0.000000   0.000000   0.000000
    17  C    0.000000   0.000000   0.000000   0.000000   0.000000   0.000000
    18  C    0.000000   0.000000   0.000000   0.000000   0.000000   0.000000
    19  H    0.000000   0.000000   0.000000   0.000000   0.000000   0.000000
    20  H    0.000000   0.000000   0.000000   0.000000   0.000000   0.000000
    21  H    0.000000   0.000000   0.000000   0.000000   0.000000   0.000000
    22  H    0.000001   0.000000   0.000000   0.000000   0.000000   0.000000
    23  H    0.000853  -0.000001   0.000000   0.000000   0.000000   0.000000
    24  H    0.002086   0.000850   0.000001   0.000000   0.000000   0.000000
    25  H    0.584289   0.001376   0.000853  -0.000001   0.000000   0.000000
    26  H    0.001376   0.584144   0.002087   0.000850   0.000001   0.000000
    27  H    0.000853   0.002087   0.584311   0.001376   0.000853  -0.000001
    28  H   -0.000001   0.000850   0.001376   0.584167   0.002087   0.000850
    29  H    0.000000   0.000001   0.000853   0.002087   0.584300   0.001376
    30  H    0.000000   0.000000  -0.000001   0.000850   0.001376   0.584172
    31  H    0.000000   0.000000   0.000000   0.000001   0.000852   0.002086
    32  H    0.000000   0.000000   0.000000   0.000000  -0.000001   0.000850
    33  H    0.000000   0.000000   0.000000   0.000000   0.000000   0.000001
    34  H    0.000000   0.000000   0.000000   0.000000   0.000000   0.000000
    35  H    0.000000   0.000000   0.000000   0.000000   0.000000   0.000000
    36  H    0.000000   0.000000   0.000000   0.000000   0.000000   0.000000
    37  H    0.000000   0.000000   0.000000   0.000000   0.000000   0.000000
    38  H    0.000000   0.000000   0.000000   0.000000   0.000000   0.000000
              31         32         33         34         35         36
     1  C    0.000000   0.000000   0.000000   0.000000   0.000000   0.000000
     2  C    0.000000   0.000000   0.000000   0.000000   0.000000   0.000000
     3  C    0.000000   0.000000   0.000000   0.000000   0.000000   0.000000
     4  C    0.000000   0.000000   0.000000   0.000000   0.000000   0.000000
     5  C    0.000000   0.000000   0.000000   0.000000   0.000000   0.000000
     6  C    0.000000   0.000000   0.000000   0.000000   0.000000   0.000000
     7  C    0.000000   0.000000   0.000000   0.000000   0.000000   0.000000
     8  C   -0.000001   0.000000   0.000000   0.000000   0.000000   0.000000
     9  C    0.000047   0.000000   0.000000   0.000000   0.000000   0.000000
    10  C   -0.005259   0.000008  -0.000001   0.000000   0.000000   0.000000
    11  C   -0.027538  -0.003386   0.000047   0.000000   0.000000   0.000000
    12  C    0.389833  -0.022697  -0.005255   0.000008  -0.000001   0.000000
    13  C   -0.022719   0.389800  -0.027525  -0.003389   0.000047   0.000000
    14  C   -0.003408  -0.027515   0.389839  -0.022711  -0.005240   0.000008
    15  C    0.000008  -0.005232  -0.022716   0.389781  -0.027468  -0.003335
    16  C    0.000000   0.000046  -0.003402  -0.027505   0.389873  -0.022682
    17  C    0.000000  -0.000001   0.000008  -0.005235  -0.022742   0.390272
    18  C    0.000000   0.000000   0.000000   0.000047  -0.003331  -0.028211
    19  H    0.000000   0.000000   0.000000   0.000000   0.000000   0.000000
    20  H    0.000000   0.000000   0.000000   0.000000   0.000000   0.000000
    21  H    0.000000   0.000000   0.000000   0.000000   0.000000   0.000000
    22  H    0.000000   0.000000   0.000000   0.000000   0.000000   0.000000
    23  H    0.000000   0.000000   0.000000   0.000000   0.000000   0.000000
    24  H    0.000000   0.000000   0.000000   0.000000   0.000000   0.000000
    25  H    0.000000   0.000000   0.000000   0.000000   0.000000   0.000000
    26  H    0.000000   0.000000   0.000000   0.000000   0.000000   0.000000
    27  H    0.000000   0.000000   0.000000   0.000000   0.000000   0.000000
    28  H    0.000001   0.000000   0.000000   0.000000   0.000000   0.000000
    29  H    0.000852  -0.000001   0.000000   0.000000   0.000000   0.000000
    30  H    0.002086   0.000850   0.000001   0.000000   0.000000   0.000000
    31  H    0.584256   0.001376   0.000852  -0.000001   0.000000   0.000000
    32  H    0.001376   0.584172   0.002086   0.000851   0.000001   0.000000
    33  H    0.000852   0.002086   0.584124   0.001377   0.000851  -0.000001
    34  H   -0.000001   0.000851   0.001377   0.584045   0.002083   0.000848
    35  H    0.000000   0.000001   0.000851   0.002083   0.583389   0.001378
    36  H    0.000000   0.000000  -0.000001   0.000848   0.001378   0.584199
    37  H    0.000000   0.000000   0.000000   0.000002   0.000871   0.002148
    38  H    0.000000   0.000000   0.000000  -0.000002   0.000011  -0.005231
              37         38
     1  C    0.000000   0.000000
     2  C    0.000000   0.000000
     3  C    0.000000   0.000000
     4  C    0.000000   0.000000
     5  C    0.000000   0.000000
     6  C    0.000000   0.000000
     7  C    0.000000   0.000000
     8  C    0.000000   0.000000
     9  C    0.000000   0.000000
    10  C    0.000000   0.000000
    11  C    0.000000   0.000000
    12  C    0.000000   0.000000
    13  C    0.000000   0.000000
    14  C   -0.000001   0.000000
    15  C    0.000047  -0.000027
    16  C   -0.005369   0.001664
    17  C   -0.025518  -0.026099
    18  C    0.390300   0.390697
    19  H    0.000000   0.000000
    20  H    0.000000   0.000000
    21  H    0.000000   0.000000
    22  H    0.000000   0.000000
    23  H    0.000000   0.000000
    24  H    0.000000   0.000000
    25  H    0.000000   0.000000
    26  H    0.000000   0.000000
    27  H    0.000000   0.000000
    28  H    0.000000   0.000000
    29  H    0.000000   0.000000
    30  H    0.000000   0.000000
    31  H    0.000000   0.000000
    32  H    0.000000   0.000000
    33  H    0.000000   0.000000
    34  H    0.000002  -0.000002
    35  H    0.000871   0.000011
    36  H    0.002148  -0.005231
    37  H    0.582064  -0.022574
    38  H   -0.022574   0.583533
 Mulliken charges:
               1
     1  C   -0.158807
     2  C   -0.080611
     3  C   -0.078819
     4  C   -0.079349
     5  C   -0.079453
     6  C   -0.079417
     7  C   -0.079537
     8  C   -0.079429
     9  C   -0.079552
    10  C   -0.079432
    11  C   -0.079537
    12  C   -0.079420
    13  C   -0.079498
    14  C   -0.079359
    15  C   -0.079392
    16  C   -0.078752
    17  C   -0.080625
    18  C   -0.158767
    19  H    0.078010
    20  H    0.078021
    21  H    0.080585
    22  H    0.080279
    23  H    0.079769
    24  H    0.079731
    25  H    0.079596
    26  H    0.079645
    27  H    0.079575
    28  H    0.079623
    29  H    0.079581
    30  H    0.079624
    31  H    0.079614
    32  H    0.079642
    33  H    0.079715
    34  H    0.079802
    35  H    0.080278
    36  H    0.080607
    37  H    0.078031
    38  H    0.078028
 Sum of Mulliken charges =   0.00000
 Mulliken charges with hydrogens summed into heavy atoms:
               1
     1  C   -0.002776
     2  C   -0.000027
     3  C    0.001460
     4  C    0.000420
     5  C    0.000278
     6  C    0.000180
     7  C    0.000108
     8  C    0.000146
     9  C    0.000071
    10  C    0.000149
    11  C    0.000087
    12  C    0.000194
    13  C    0.000144
    14  C    0.000357
    15  C    0.000410
    16  C    0.001526
    17  C   -0.000019
    18  C   -0.002708
 Electronic spatial extent (au):  <R**2>=          19467.3046
 Charge=              0.0000 electrons
 Dipole moment (field-independent basis, Debye):
    X=             -0.0088    Y=             -0.0004    Z=              0.0184  Tot=              0.0204
 Quadrupole moment (field-independent basis, Debye-Ang):
   XX=            -96.6231   YY=            -90.8538   ZZ=           -107.1090
   XY=             -0.7604   XZ=             -0.0101   YZ=              0.0216
 Traceless Quadrupole moment (field-independent basis, Debye-Ang):
   XX=              1.5722   YY=              7.3415   ZZ=             -8.9137
   XY=             -0.7604   XZ=             -0.0101   YZ=              0.0216
 Octapole moment (field-independent basis, Debye-Ang**2):
  XXX=             -0.7337  YYY=              0.0172  ZZZ=             -0.0224  XYY=              0.0271
  XXY=              0.1233  XXZ=              2.8862  XZZ=             -0.0044  YZZ=              0.0002
  YYZ=             -0.0106  XYZ=              0.9819
 Hexadecapole moment (field-independent basis, Debye-Ang**3):
 XXXX=         -24067.8326 YYYY=           -269.8650 ZZZZ=            -88.9894 XXXY=           -133.0968
 XXXZ=             -1.5148 YYYX=              2.8241 YYYZ=              0.0568 ZZZX=              0.0030
 ZZZY=              0.0078 XXYY=          -3876.1011 XXZZ=          -4502.2357 YYZZ=            -69.0408
 XXYZ=              0.6649 YYXZ=             -0.0032 ZZXY=              0.2504
 N-N= 9.402133815617D+02 E-N=-3.475647131172D+03  KE= 6.784800470027D+02
 Calling FoFJK, ICntrl=      2127 FMM=F ISym2X=0 I1Cent= 0 IOpClX= 0 NMat=1 NMatS=1 NMatT=0.
 ***** Axes restored to original set *****
 -------------------------------------------------------------------
 Center     Atomic                   Forces (Hartrees/Bohr)
 Number     Number              X              Y              Z
 -------------------------------------------------------------------
      1        6          -0.007915446   -0.001502599    0.001302324
      2        6           0.013863150   -0.008341034    0.009431638
      3        6          -0.024695392    0.000117597   -0.001115471
      4        6           0.029705044    0.000653023    0.000448908
      5        6          -0.030760809   -0.002510866    0.001327129
      6        6           0.031932133    0.002593362   -0.001430717
      7        6          -0.032213705   -0.003236074    0.001826026
      8        6           0.032549048    0.003236464   -0.001894431
      9        6          -0.032579365   -0.003526220    0.001847581
     10        6           0.032600819    0.003489399   -0.001900763
     11        6          -0.032497134   -0.003571829    0.001634848
     12        6           0.032195184    0.003509484   -0.001682420
     13        6          -0.031858951   -0.003138653    0.001041168
     14        6           0.030714381    0.002991124   -0.001040587
     15        6          -0.029644591   -0.001226092   -0.000788374
     16        6           0.024660385    0.000290674    0.001315343
     17        6          -0.013934352    0.008507981   -0.009148511
     18        6           0.007875266    0.001729337   -0.001140305
     19        1          -0.008186861   -0.004906951    0.004923729
     20        1           0.001521907   -0.005783422    0.006221832
     21        1          -0.001024248    0.007919105   -0.008513767
     22        1           0.001656891   -0.006310490    0.006755894
     23        1          -0.001855935    0.006296556   -0.006794828
     24        1           0.001814052   -0.006322858    0.006703518
     25        1          -0.001842077    0.006297416   -0.006749981
     26        1           0.001839555   -0.006377347    0.006657536
     27        1          -0.001849107    0.006329674   -0.006703181
     28        1           0.001861169   -0.006434944    0.006597214
     29        1          -0.001866485    0.006381995   -0.006649028
     30        1           0.001885172   -0.006493096    0.006541210
     31        1          -0.001875977    0.006434342   -0.006580241
     32        1           0.001912157   -0.006546730    0.006503072
     33        1          -0.001878212    0.006484476   -0.006518595
     34        1           0.001938930   -0.006587204    0.006487837
     35        1          -0.001728549    0.006542435   -0.006484098
     36        1           0.001138478   -0.008337214    0.008097539
     37        1          -0.001588572    0.006032282   -0.005940562
     38        1           0.008132047    0.005316896   -0.004588489
 -------------------------------------------------------------------
 Cartesian Forces:  Max     0.032600819 RMS     0.011874969

 GradGradGradGradGradGradGradGradGradGradGradGradGradGradGradGradGradGrad
 Berny optimization.
 FormGI is forming the generalized inverse of G from B-inverse, IUseBI=4.
 GSVD:  received Info=                   1 from GESDD.
 Internal  Forces:  Max     0.037875917 RMS     0.010330198
 Search for a local minimum.
 Step number   1 out of a maximum of  169
 All quantities printed in internal units (Hartrees-Bohrs-Radians)
 Mixed Optimization -- RFO/linear search
 Second derivative matrix not updated -- first step.
 ITU=  0
     Eigenvalues ---    0.01057   0.01057   0.01058   0.01058   0.01058
     Eigenvalues ---    0.01058   0.01062   0.01063   0.01975   0.01975
     Eigenvalues ---    0.01975   0.01975   0.01975   0.01975   0.01975
     Eigenvalues ---    0.01976   0.01976   0.01976   0.01976   0.01976
     Eigenvalues ---    0.01978   0.01978   0.01997   0.01998   0.02885
     Eigenvalues ---    0.02886   0.02886   0.02886   0.02886   0.02886
     Eigenvalues ---    0.02886   0.02947   0.02947   0.02947   0.02947
     Eigenvalues ---    0.16000   0.16000   0.16000   0.16000   0.16000
     Eigenvalues ---    0.16000   0.16000   0.16000   0.16000   0.16000
     Eigenvalues ---    0.16000   0.16000   0.16000   0.16000   0.16000
     Eigenvalues ---    0.16000   0.16000   0.16000   0.16000   0.16000
     Eigenvalues ---    0.22000   0.22000   0.22000   0.22000   0.22000
     Eigenvalues ---    0.22000   0.22000   0.22000   0.22000   0.22000
     Eigenvalues ---    0.22000   0.22000   0.22000   0.22000   0.22000
     Eigenvalues ---    0.22000   0.34801   0.34803   0.34806   0.34809
     Eigenvalues ---    0.34809   0.34810   0.34845   0.34851   0.35074
     Eigenvalues ---    0.35077   0.35077   0.35078   0.35078   0.35078
     Eigenvalues ---    0.35079   0.35079   0.35079   0.35080   0.35080
     Eigenvalues ---    0.35080   0.35080   0.35081   0.35191   0.35193
     Eigenvalues ---    0.35265   0.35268   0.35373   0.35374   0.57255
     Eigenvalues ---    0.57259   0.57260   0.57261   0.57265   0.57266
     Eigenvalues ---    0.57271   0.58305   0.58311
 RFO step:  Lambda=-4.13001150D-02 EMin= 1.05717363D-02
 Linear search not attempted -- first point.
 Maximum step size (   0.300) exceeded in Quadratic search.
    -- Step size scaled by   0.862
 Iteration  1 RMS(Cart)=  0.13765255 RMS(Int)=  0.00042031
 Iteration  2 RMS(Cart)=  0.00073268 RMS(Int)=  0.00000583
 Iteration  3 RMS(Cart)=  0.00000057 RMS(Int)=  0.00000583
 Variable       Old X    -DE/DX   Delta X   Delta X   Delta X     New X
                                 (Linear)    (Quad)   (Total)
    R1        2.52302   0.02172   0.00000   0.03000   0.03000   2.55303
    R2        2.05074   0.00898   0.00000   0.01961   0.01961   2.07034
    R3        2.05243   0.00776   0.00000   0.01698   0.01698   2.06941
    R4        2.79228   0.00429   0.00000   0.00949   0.00949   2.80177
    R5        2.05366   0.00980   0.00000   0.02150   0.02150   2.07516
    R6        2.53168   0.03423   0.00000   0.04808   0.04808   2.57975
    R7        2.05550   0.00835   0.00000   0.01836   0.01836   2.07386
    R8        2.79299  -0.00061   0.00000  -0.00134  -0.00134   2.79164
    R9        2.05549   0.00848   0.00000   0.01866   0.01866   2.07415
   R10        2.53172   0.03697   0.00000   0.05193   0.05193   2.58365
   R11        2.05546   0.00841   0.00000   0.01851   0.01851   2.07397
   R12        2.79295  -0.00174   0.00000  -0.00385  -0.00385   2.78910
   R13        2.05548   0.00844   0.00000   0.01858   0.01858   2.07406
   R14        2.53173   0.03773   0.00000   0.05300   0.05300   2.58473
   R15        2.05545   0.00843   0.00000   0.01854   0.01854   2.07399
   R16        2.79291  -0.00204   0.00000  -0.00453  -0.00453   2.78838
   R17        2.05548   0.00843   0.00000   0.01855   0.01855   2.07403
   R18        2.53177   0.03788   0.00000   0.05321   0.05321   2.58498
   R19        2.05545   0.00843   0.00000   0.01855   0.01855   2.07400
   R20        2.79287  -0.00203   0.00000  -0.00450  -0.00450   2.78837
   R21        2.05546   0.00843   0.00000   0.01855   0.01855   2.07402
   R22        2.53178   0.03770   0.00000   0.05297   0.05297   2.58475
   R23        2.05545   0.00844   0.00000   0.01857   0.01857   2.07401
   R24        2.79285  -0.00171   0.00000  -0.00379  -0.00379   2.78906
   R25        2.05548   0.00842   0.00000   0.01853   0.01853   2.07400
   R26        2.53181   0.03691   0.00000   0.05186   0.05186   2.58367
   R27        2.05544   0.00846   0.00000   0.01861   0.01861   2.07405
   R28        2.79286  -0.00057   0.00000  -0.00126  -0.00126   2.79160
   R29        2.05548   0.00841   0.00000   0.01850   0.01850   2.07398
   R30        2.53176   0.03418   0.00000   0.04801   0.04801   2.57978
   R31        2.05548   0.00849   0.00000   0.01867   0.01867   2.07415
   R32        2.79217   0.00432   0.00000   0.00956   0.00956   2.80173
   R33        2.05555   0.00833   0.00000   0.01833   0.01833   2.07387
   R34        2.52307   0.02169   0.00000   0.02997   0.02997   2.55304
   R35        2.05363   0.00981   0.00000   0.02152   0.02152   2.07516
   R36        2.05246   0.00774   0.00000   0.01695   0.01695   2.06941
   R37        2.05071   0.00899   0.00000   0.01963   0.01963   2.07034
    A1        2.09343   0.00547   0.00000   0.02343   0.02343   2.11686
    A2        2.11123   0.00114   0.00000   0.00490   0.00490   2.11613
    A3        2.07853  -0.00661   0.00000  -0.02833  -0.02833   2.05019
    A4        2.11042   0.01265   0.00000   0.04177   0.04177   2.15219
    A5        2.07966   0.00018   0.00000   0.00701   0.00701   2.08667
    A6        2.09310  -0.01284   0.00000  -0.04878  -0.04878   2.04432
    A7        2.10703   0.01348   0.00000   0.04449   0.04449   2.15152
    A8        2.08422  -0.01116   0.00000  -0.04119  -0.04119   2.04303
    A9        2.09193  -0.00232   0.00000  -0.00329  -0.00329   2.08864
   A10        2.10772   0.01351   0.00000   0.04459   0.04459   2.15231
   A11        2.09121  -0.00248   0.00000  -0.00397  -0.00397   2.08724
   A12        2.08426  -0.01103   0.00000  -0.04062  -0.04062   2.04363
   A13        2.10702   0.01356   0.00000   0.04474   0.04474   2.15176
   A14        2.08455  -0.01106   0.00000  -0.04073  -0.04073   2.04382
   A15        2.09161  -0.00249   0.00000  -0.00401  -0.00401   2.08760
   A16        2.10789   0.01346   0.00000   0.04443   0.04443   2.15232
   A17        2.09124  -0.00246   0.00000  -0.00390  -0.00390   2.08734
   A18        2.08406  -0.01101   0.00000  -0.04053  -0.04053   2.04352
   A19        2.10681   0.01364   0.00000   0.04501   0.04501   2.15182
   A20        2.08467  -0.01110   0.00000  -0.04083  -0.04083   2.04384
   A21        2.09170  -0.00254   0.00000  -0.00417  -0.00417   2.08753
   A22        2.10803   0.01344   0.00000   0.04435   0.04435   2.15237
   A23        2.09117  -0.00244   0.00000  -0.00386  -0.00386   2.08731
   A24        2.08398  -0.01099   0.00000  -0.04048  -0.04048   2.04349
   A25        2.10670   0.01367   0.00000   0.04511   0.04511   2.15181
   A26        2.08472  -0.01111   0.00000  -0.04086  -0.04086   2.04386
   A27        2.09175  -0.00256   0.00000  -0.00424  -0.00424   2.08751
   A28        2.10806   0.01343   0.00000   0.04433   0.04433   2.15238
   A29        2.09116  -0.00244   0.00000  -0.00386  -0.00386   2.08730
   A30        2.08396  -0.01099   0.00000  -0.04046  -0.04046   2.04349
   A31        2.10672   0.01366   0.00000   0.04510   0.04510   2.15182
   A32        2.08470  -0.01110   0.00000  -0.04083  -0.04083   2.04386
   A33        2.09176  -0.00256   0.00000  -0.00426  -0.00426   2.08750
   A34        2.10799   0.01343   0.00000   0.04433   0.04433   2.15232
   A35        2.09120  -0.00244   0.00000  -0.00387  -0.00387   2.08734
   A36        2.08398  -0.01098   0.00000  -0.04045  -0.04045   2.04353
   A37        2.10688   0.01363   0.00000   0.04500   0.04500   2.15188
   A38        2.08461  -0.01108   0.00000  -0.04078  -0.04078   2.04383
   A39        2.09169  -0.00255   0.00000  -0.00422  -0.00422   2.08747
   A40        2.10783   0.01341   0.00000   0.04427   0.04427   2.15210
   A41        2.09128  -0.00243   0.00000  -0.00382  -0.00382   2.08746
   A42        2.08407  -0.01098   0.00000  -0.04045  -0.04045   2.04362
   A43        2.10715   0.01360   0.00000   0.04490   0.04490   2.15205
   A44        2.08455  -0.01107   0.00000  -0.04072  -0.04072   2.04382
   A45        2.09149  -0.00254   0.00000  -0.00417  -0.00417   2.08732
   A46        2.10741   0.01341   0.00000   0.04427   0.04427   2.15168
   A47        2.09180  -0.00230   0.00000  -0.00324  -0.00324   2.08856
   A48        2.08397  -0.01112   0.00000  -0.04103  -0.04103   2.04294
   A49        2.11025   0.01268   0.00000   0.04184   0.04184   2.15209
   A50        2.09318  -0.01284   0.00000  -0.04878  -0.04878   2.04440
   A51        2.07976   0.00016   0.00000   0.00694   0.00694   2.08670
   A52        2.11121   0.00114   0.00000   0.00490   0.00490   2.11610
   A53        2.09351   0.00546   0.00000   0.02339   0.02339   2.11690
   A54        2.07847  -0.00660   0.00000  -0.02829  -0.02829   2.05018
    D1        3.14113   0.00001   0.00000   0.00013   0.00013   3.14126
    D2        0.00015   0.00000   0.00000  -0.00005  -0.00005   0.00010
    D3       -0.00015  -0.00001   0.00000  -0.00007  -0.00007  -0.00021
    D4       -3.14112  -0.00002   0.00000  -0.00025  -0.00025  -3.14137
    D5       -3.13927  -0.00003   0.00000  -0.00045  -0.00045  -3.13971
    D6        0.00107   0.00000   0.00000   0.00000   0.00000   0.00107
    D7        0.00171  -0.00002   0.00000  -0.00025  -0.00025   0.00146
    D8       -3.14114   0.00002   0.00000   0.00020   0.00020  -3.14094
    D9        3.13958   0.00003   0.00000   0.00047   0.00048   3.14006
   D10       -0.00010  -0.00001   0.00000  -0.00009  -0.00009  -0.00019
   D11       -0.00075   0.00000   0.00000   0.00004   0.00005  -0.00070
   D12       -3.14043  -0.00004   0.00000  -0.00052  -0.00052  -3.14095
   D13       -3.13565  -0.00008   0.00000  -0.00113  -0.00113  -3.13678
   D14        0.00321  -0.00001   0.00000  -0.00019  -0.00019   0.00302
   D15        0.00404  -0.00003   0.00000  -0.00054  -0.00053   0.00350
   D16       -3.14028   0.00004   0.00000   0.00041   0.00040  -3.13988
   D17        3.13753   0.00007   0.00000   0.00098   0.00099   3.13853
   D18       -0.00061   0.00000   0.00000  -0.00006  -0.00006  -0.00066
   D19       -0.00132   0.00001   0.00000   0.00009   0.00009  -0.00123
   D20       -3.13946  -0.00006   0.00000  -0.00095  -0.00096  -3.14042
   D21       -3.13188  -0.00013   0.00000  -0.00187  -0.00186  -3.13374
   D22        0.00556  -0.00002   0.00000  -0.00046  -0.00046   0.00510
   D23        0.00627  -0.00005   0.00000  -0.00077  -0.00076   0.00551
   D24       -3.13947   0.00006   0.00000   0.00065   0.00064  -3.13884
   D25        3.13575   0.00010   0.00000   0.00143   0.00145   3.13720
   D26       -0.00119   0.00000   0.00000   0.00000   0.00000  -0.00119
   D27       -0.00167   0.00001   0.00000   0.00010   0.00010  -0.00158
   D28       -3.13861  -0.00009   0.00000  -0.00133  -0.00135  -3.13996
   D29       -3.12923  -0.00017   0.00000  -0.00239  -0.00237  -3.13160
   D30        0.00737  -0.00004   0.00000  -0.00071  -0.00071   0.00666
   D31        0.00773  -0.00005   0.00000  -0.00087  -0.00087   0.00686
   D32       -3.13886   0.00008   0.00000   0.00081   0.00079  -3.13807
   D33        3.13487   0.00011   0.00000   0.00165   0.00167   3.13654
   D34       -0.00161   0.00000   0.00000   0.00005   0.00005  -0.00155
   D35       -0.00171   0.00001   0.00000   0.00007   0.00007  -0.00164
   D36       -3.13818  -0.00010   0.00000  -0.00153  -0.00155  -3.13973
   D37       -3.12862  -0.00018   0.00000  -0.00251  -0.00249  -3.13111
   D38        0.00803  -0.00005   0.00000  -0.00087  -0.00087   0.00716
   D39        0.00788  -0.00005   0.00000  -0.00081  -0.00081   0.00707
   D40       -3.13866   0.00008   0.00000   0.00083   0.00081  -3.13785
   D41        3.13525   0.00011   0.00000   0.00155   0.00157   3.13682
   D42       -0.00173   0.00001   0.00000   0.00009   0.00009  -0.00164
   D43       -0.00137   0.00000   0.00000   0.00001   0.00001  -0.00136
   D44       -3.13835  -0.00010   0.00000  -0.00145  -0.00147  -3.13983
   D45       -3.13039  -0.00015   0.00000  -0.00216  -0.00214  -3.13254
   D46        0.00720  -0.00005   0.00000  -0.00085  -0.00085   0.00635
   D47        0.00660  -0.00003   0.00000  -0.00060  -0.00060   0.00600
   D48       -3.13899   0.00007   0.00000   0.00070   0.00068  -3.13830
   D49        3.13679   0.00008   0.00000   0.00117   0.00118   3.13798
   D50       -0.00149   0.00001   0.00000   0.00009   0.00009  -0.00140
[...]
    20  H    0.000000   0.000000   0.000000   0.000000   0.000000   0.000000
    21  H    0.000000   0.000000   0.000000   0.000000   0.000000   0.000000
    22  H   -0.000001   0.000000   0.000000   0.000000   0.000000   0.000000
    23  H    0.000005   0.000000   0.000000   0.000000   0.000000   0.000000
    24  H   -0.004146   0.000024  -0.000001   0.000000   0.000000   0.000000
    25  H   -0.025027  -0.003322   0.000005   0.000000   0.000000   0.000000
    26  H    0.384372  -0.026564  -0.004139   0.000023  -0.000001   0.000000
    27  H   -0.026583   0.384387  -0.025041  -0.003331   0.000005   0.000000
    28  H   -0.003328  -0.025033   0.384382  -0.026568  -0.004140   0.000024
    29  H    0.000024  -0.004140  -0.026568   0.384382  -0.025033  -0.003328
    30  H    0.000000   0.000005  -0.003331  -0.025041   0.384387  -0.026583
    31  H    0.000000  -0.000001   0.000023  -0.004139  -0.026564   0.384372
    32  H    0.000000   0.000000   0.000000   0.000005  -0.003322  -0.025027
    33  H    0.000000   0.000000   0.000000  -0.000001   0.000024  -0.004146
    34  H    0.000000   0.000000   0.000000   0.000000   0.000000   0.000005
    35  H    0.000000   0.000000   0.000000   0.000000   0.000000  -0.000001
    36  H    0.000000   0.000000   0.000000   0.000000   0.000000   0.000000
    37  H    0.000000   0.000000   0.000000   0.000000   0.000000   0.000000
    38  H    0.000000   0.000000   0.000000   0.000000   0.000000   0.000000
              13         14         15         16         17         18
     1  C    0.000000   0.000000   0.000000   0.000000   0.000000   0.000000
     2  C    0.000000   0.000000   0.000000   0.000000   0.000000   0.000000
     3  C    0.000000   0.000000   0.000000   0.000000   0.000000   0.000000
     4  C    0.000000   0.000000   0.000000   0.000000   0.000000   0.000000
     5  C    0.000000   0.000000   0.000000   0.000000   0.000000   0.000000
     6  C    0.000000   0.000000   0.000000   0.000000   0.000000   0.000000
     7  C    0.000000   0.000000   0.000000   0.000000   0.000000   0.000000
     8  C    0.000000   0.000000   0.000000   0.000000   0.000000   0.000000
     9  C   -0.000006   0.000000   0.000000   0.000000   0.000000   0.000000
    10  C    0.000815  -0.000006   0.000000   0.000000   0.000000   0.000000
    11  C   -0.027019   0.000704  -0.000006   0.000000   0.000000   0.000000
    12  C    0.441849  -0.027039   0.000815  -0.000006   0.000000   0.000000
    13  C    4.811067   0.551218  -0.026944   0.000697  -0.000006   0.000000
    14  C    0.551218   4.814085   0.438050  -0.026988   0.000812  -0.000006
    15  C   -0.026944   0.438050   4.808964   0.557470  -0.026676   0.000687
    16  C    0.000697  -0.026988   0.557470   4.819001   0.426602  -0.027605
    17  C   -0.000006   0.000812  -0.026676   0.426602   4.789960   0.579325
    18  C    0.000000  -0.000006   0.000687  -0.027605   0.579325   4.856516
    19  H    0.000000   0.000000   0.000000   0.000000   0.000000   0.000000
    20  H    0.000000   0.000000   0.000000   0.000000   0.000000   0.000000
    21  H    0.000000   0.000000   0.000000   0.000000   0.000000   0.000000
    22  H    0.000000   0.000000   0.000000   0.000000   0.000000   0.000000
    23  H    0.000000   0.000000   0.000000   0.000000   0.000000   0.000000
    24  H    0.000000   0.000000   0.000000   0.000000   0.000000   0.000000
    25  H    0.000000   0.000000   0.000000   0.000000   0.000000   0.000000
    26  H    0.000000   0.000000   0.000000   0.000000   0.000000   0.000000
    27  H    0.000000   0.000000   0.000000   0.000000   0.000000   0.000000
    28  H   -0.000001   0.000000   0.000000   0.000000   0.000000   0.000000
    29  H    0.000005   0.000000   0.000000   0.000000   0.000000   0.000000
    30  H   -0.004147   0.000024  -0.000001   0.000000   0.000000   0.000000
    31  H   -0.024996  -0.003312   0.000005   0.000000   0.000000   0.000000
    32  H    0.384386  -0.026620  -0.004166   0.000024  -0.000001   0.000000
    33  H   -0.026573   0.384351  -0.024902  -0.003268   0.000004   0.000000
    34  H   -0.003295  -0.024988   0.384340  -0.026728  -0.004217   0.000027
    35  H    0.000024  -0.004156  -0.026601   0.384226  -0.024623  -0.003082
    36  H    0.000000   0.000003  -0.003236  -0.025323   0.385311  -0.026786
    37  H    0.000000  -0.000001   0.000025  -0.004209  -0.024405   0.386160
    38  H    0.000000   0.000000  -0.000019   0.001413  -0.023830   0.388068
              19         20         21         22         23         24
     1  C    0.388068   0.386160  -0.026786  -0.003082   0.000027   0.000000
     2  C   -0.023830  -0.024405   0.385311  -0.024623  -0.004217   0.000004
     3  C    0.001413  -0.004209  -0.025323   0.384226  -0.026728  -0.003268
     4  C   -0.000019   0.000025  -0.003236  -0.026601   0.384340  -0.024902
     5  C    0.000000  -0.000001   0.000003  -0.004156  -0.024988   0.384351
     6  C    0.000000   0.000000   0.000000   0.000024  -0.003295  -0.026573
     7  C    0.000000   0.000000   0.000000  -0.000001   0.000005  -0.004146
     8  C    0.000000   0.000000   0.000000   0.000000   0.000000   0.000024
     9  C    0.000000   0.000000   0.000000   0.000000   0.000000  -0.000001
    10  C    0.000000   0.000000   0.000000   0.000000   0.000000   0.000000
    11  C    0.000000   0.000000   0.000000   0.000000   0.000000   0.000000
    12  C    0.000000   0.000000   0.000000   0.000000   0.000000   0.000000
    13  C    0.000000   0.000000   0.000000   0.000000   0.000000   0.000000
    14  C    0.000000   0.000000   0.000000   0.000000   0.000000   0.000000
    15  C    0.000000   0.000000   0.000000   0.000000   0.000000   0.000000
    16  C    0.000000   0.000000   0.000000   0.000000   0.000000   0.000000
    17  C    0.000000   0.000000   0.000000   0.000000   0.000000   0.000000
    18  C    0.000000   0.000000   0.000000   0.000000   0.000000   0.000000
    19  H    0.584126  -0.023565  -0.004627   0.000001  -0.000001   0.000000
    20  H   -0.023565   0.586617   0.002004   0.000954   0.000001   0.000000
    21  H   -0.004627   0.002004   0.592528   0.001555   0.001016   0.000000
    22  H    0.000001   0.000954   0.001555   0.592362   0.001969   0.000975
    23  H   -0.000001   0.000001   0.001016   0.001969   0.592809   0.001584
    24  H    0.000000   0.000000   0.000000   0.000975   0.001584   0.592496
    25  H    0.000000   0.000000   0.000000   0.000001   0.000985   0.001953
    26  H    0.000000   0.000000   0.000000   0.000000   0.000000   0.000980
    27  H    0.000000   0.000000   0.000000   0.000000   0.000000   0.000001
    28  H    0.000000   0.000000   0.000000   0.000000   0.000000   0.000000
    29  H    0.000000   0.000000   0.000000   0.000000   0.000000   0.000000
    30  H    0.000000   0.000000   0.000000   0.000000   0.000000   0.000000
    31  H    0.000000   0.000000   0.000000   0.000000   0.000000   0.000000
    32  H    0.000000   0.000000   0.000000   0.000000   0.000000   0.000000
    33  H    0.000000   0.000000   0.000000   0.000000   0.000000   0.000000
    34  H    0.000000   0.000000   0.000000   0.000000   0.000000   0.000000
    35  H    0.000000   0.000000   0.000000   0.000000   0.000000   0.000000
    36  H    0.000000   0.000000   0.000000   0.000000   0.000000   0.000000
    37  H    0.000000   0.000000   0.000000   0.000000   0.000000   0.000000
    38  H    0.000000   0.000000   0.000000   0.000000   0.000000   0.000000
              25         26         27         28         29         30
     1  C    0.000000   0.000000   0.000000   0.000000   0.000000   0.000000
     2  C   -0.000001   0.000000   0.000000   0.000000   0.000000   0.000000
     3  C    0.000024   0.000000   0.000000   0.000000   0.000000   0.000000
     4  C   -0.004166   0.000005  -0.000001   0.000000   0.000000   0.000000
     5  C   -0.026620  -0.003312   0.000024   0.000000   0.000000   0.000000
     6  C    0.384386  -0.024996  -0.004147   0.000005  -0.000001   0.000000
     7  C   -0.025027   0.384372  -0.026583  -0.003328   0.000024   0.000000
     8  C   -0.003322  -0.026564   0.384387  -0.025033  -0.004140   0.000005
     9  C    0.000005  -0.004139  -0.025041   0.384382  -0.026568  -0.003331
    10  C    0.000000   0.000023  -0.003331  -0.026568   0.384382  -0.025041
    11  C    0.000000  -0.000001   0.000005  -0.004140  -0.025033   0.384387
    12  C    0.000000   0.000000   0.000000   0.000024  -0.003328  -0.026583
    13  C    0.000000   0.000000   0.000000  -0.000001   0.000005  -0.004147
    14  C    0.000000   0.000000   0.000000   0.000000   0.000000   0.000024
    15  C    0.000000   0.000000   0.000000   0.000000   0.000000  -0.000001
    16  C    0.000000   0.000000   0.000000   0.000000   0.000000   0.000000
    17  C    0.000000   0.000000   0.000000   0.000000   0.000000   0.000000
    18  C    0.000000   0.000000   0.000000   0.000000   0.000000   0.000000
    19  H    0.000000   0.000000   0.000000   0.000000   0.000000   0.000000
    20  H    0.000000   0.000000   0.000000   0.000000   0.000000   0.000000
    21  H    0.000000   0.000000   0.000000   0.000000   0.000000   0.000000
    22  H    0.000001   0.000000   0.000000   0.000000   0.000000   0.000000
    23  H    0.000985   0.000000   0.000000   0.000000   0.000000   0.000000
    24  H    0.001953   0.000980   0.000001   0.000000   0.000000   0.000000
    25  H    0.592711   0.001598   0.000983   0.000000   0.000000   0.000000
    26  H    0.001598   0.592620   0.001948   0.000981   0.000001   0.000000
    27  H    0.000983   0.001948   0.592696   0.001603   0.000982   0.000000
    28  H    0.000000   0.000981   0.001603   0.592671   0.001946   0.000982
    29  H    0.000000   0.000001   0.000982   0.001946   0.592671   0.001603
    30  H    0.000000   0.000000   0.000000   0.000982   0.001603   0.592696
    31  H    0.000000   0.000000   0.000000   0.000001   0.000981   0.001948
    32  H    0.000000   0.000000   0.000000   0.000000   0.000000   0.000983
    33  H    0.000000   0.000000   0.000000   0.000000   0.000000   0.000001
    34  H    0.000000   0.000000   0.000000   0.000000   0.000000   0.000000
    35  H    0.000000   0.000000   0.000000   0.000000   0.000000   0.000000
    36  H    0.000000   0.000000   0.000000   0.000000   0.000000   0.000000
    37  H    0.000000   0.000000   0.000000   0.000000   0.000000   0.000000
    38  H    0.000000   0.000000   0.000000   0.000000   0.000000   0.000000
              31         32         33         34         35         36
     1  C    0.000000   0.000000   0.000000   0.000000   0.000000   0.000000
     2  C    0.000000   0.000000   0.000000   0.000000   0.000000   0.000000
     3  C    0.000000   0.000000   0.000000   0.000000   0.000000   0.000000
     4  C    0.000000   0.000000   0.000000   0.000000   0.000000   0.000000
     5  C    0.000000   0.000000   0.000000   0.000000   0.000000   0.000000
     6  C    0.000000   0.000000   0.000000   0.000000   0.000000   0.000000
     7  C    0.000000   0.000000   0.000000   0.000000   0.000000   0.000000
     8  C   -0.000001   0.000000   0.000000   0.000000   0.000000   0.000000
     9  C    0.000023   0.000000   0.000000   0.000000   0.000000   0.000000
    10  C   -0.004139   0.000005  -0.000001   0.000000   0.000000   0.000000
    11  C   -0.026564  -0.003322   0.000024   0.000000   0.000000   0.000000
    12  C    0.384372  -0.025027  -0.004146   0.000005  -0.000001   0.000000
    13  C   -0.024996   0.384386  -0.026573  -0.003295   0.000024   0.000000
    14  C   -0.003312  -0.026620   0.384351  -0.024988  -0.004156   0.000003
    15  C    0.000005  -0.004166  -0.024902   0.384340  -0.026601  -0.003236
    16  C    0.000000   0.000024  -0.003268  -0.026728   0.384226  -0.025323
    17  C    0.000000  -0.000001   0.000004  -0.004217  -0.024623   0.385311
    18  C    0.000000   0.000000   0.000000   0.000027  -0.003082  -0.026786
    19  H    0.000000   0.000000   0.000000   0.000000   0.000000   0.000000
    20  H    0.000000   0.000000   0.000000   0.000000   0.000000   0.000000
    21  H    0.000000   0.000000   0.000000   0.000000   0.000000   0.000000
    22  H    0.000000   0.000000   0.000000   0.000000   0.000000   0.000000
    23  H    0.000000   0.000000   0.000000   0.000000   0.000000   0.000000
    24  H    0.000000   0.000000   0.000000   0.000000   0.000000   0.000000
    25  H    0.000000   0.000000   0.000000   0.000000   0.000000   0.000000
    26  H    0.000000   0.000000   0.000000   0.000000   0.000000   0.000000
    27  H    0.000000   0.000000   0.000000   0.000000   0.000000   0.000000
    28  H    0.000001   0.000000   0.000000   0.000000   0.000000   0.000000
    29  H    0.000981   0.000000   0.000000   0.000000   0.000000   0.000000
    30  H    0.001948   0.000983   0.000001   0.000000   0.000000   0.000000
    31  H    0.592620   0.001598   0.000980   0.000000   0.000000   0.000000
    32  H    0.001598   0.592711   0.001953   0.000985   0.000001   0.000000
    33  H    0.000980   0.001953   0.592496   0.001584   0.000975   0.000000
    34  H    0.000000   0.000985   0.001584   0.592809   0.001969   0.001016
    35  H    0.000000   0.000001   0.000975   0.001969   0.592362   0.001555
    36  H    0.000000   0.000000   0.000000   0.001016   0.001555   0.592528
    37  H    0.000000   0.000000   0.000000   0.000001   0.000954   0.002004
    38  H    0.000000   0.000000   0.000000  -0.000001   0.000001  -0.004627
              37         38
     1  C    0.000000   0.000000
     2  C    0.000000   0.000000
     3  C    0.000000   0.000000
     4  C    0.000000   0.000000
     5  C    0.000000   0.000000
     6  C    0.000000   0.000000
     7  C    0.000000   0.000000
     8  C    0.000000   0.000000
     9  C    0.000000   0.000000
    10  C    0.000000   0.000000
    11  C    0.000000   0.000000
    12  C    0.000000   0.000000
    13  C    0.000000   0.000000
    14  C   -0.000001   0.000000
    15  C    0.000025  -0.000019
    16  C   -0.004209   0.001413
    17  C   -0.024405  -0.023830
    18  C    0.386160   0.388068
    19  H    0.000000   0.000000
    20  H    0.000000   0.000000
    21  H    0.000000   0.000000
    22  H    0.000000   0.000000
    23  H    0.000000   0.000000
    24  H    0.000000   0.000000
    25  H    0.000000   0.000000
    26  H    0.000000   0.000000
    27  H    0.000000   0.000000
    28  H    0.000000   0.000000
    29  H    0.000000   0.000000
    30  H    0.000000   0.000000
    31  H    0.000000   0.000000
    32  H    0.000000   0.000000
    33  H    0.000000   0.000000
    34  H    0.000001  -0.000001
    35  H    0.000954   0.000001
    36  H    0.002004  -0.004627
    37  H    0.586617  -0.023565
    38  H   -0.023565   0.584126
 Mulliken charges:
               1
     1  C   -0.153304
     2  C   -0.078257
     3  C   -0.075307
     4  C   -0.077805
     5  C   -0.076130
     6  C   -0.077074
     7  C   -0.076445
     8  C   -0.076803
     9  C   -0.076628
    10  C   -0.076628
    11  C   -0.076803
    12  C   -0.076445
    13  C   -0.077074
    14  C   -0.076130
    15  C   -0.077806
    16  C   -0.075307
    17  C   -0.078257
    18  C   -0.153304
    19  H    0.078435
    20  H    0.076418
    21  H    0.077556
    22  H    0.076396
    23  H    0.076495
    24  H    0.076523
    25  H    0.076492
    26  H    0.076486
    27  H    0.076476
    28  H    0.076476
    29  H    0.076476
    30  H    0.076477
    31  H    0.076486
    32  H    0.076492
    33  H    0.076523
    34  H    0.076495
    35  H    0.076396
    36  H    0.077556
    37  H    0.076418
    38  H    0.078435
 Sum of Mulliken charges =   0.00000
 Mulliken charges with hydrogens summed into heavy atoms:
               1
     1  C    0.001549
     2  C   -0.000701
     3  C    0.001089
     4  C   -0.001310
     5  C    0.000393
     6  C   -0.000582
     7  C    0.000042
     8  C   -0.000327
     9  C   -0.000152
    10  C   -0.000152
    11  C   -0.000327
    12  C    0.000042
    13  C   -0.000582
    14  C    0.000393
    15  C   -0.001310
    16  C    0.001089
    17  C   -0.000701
    18  C    0.001549
 Electronic spatial extent (au):  <R**2>=          20255.7203
 Charge=              0.0000 electrons
 Dipole moment (field-independent basis, Debye):
    X=              0.0000    Y=              0.0000    Z=              0.0000  Tot=              0.0000
 Quadrupole moment (field-independent basis, Debye-Ang):
   XX=            -92.4193   YY=            -91.6683   ZZ=           -107.2869
   XY=              0.2431   XZ=              0.0000   YZ=              0.0000
 Traceless Quadrupole moment (field-independent basis, Debye-Ang):
   XX=              4.7056   YY=              5.4565   ZZ=            -10.1621
   XY=              0.2431   XZ=              0.0000   YZ=              0.0000
 Octapole moment (field-independent basis, Debye-Ang**2):
  XXX=             -0.0004  YYY=              0.0000  ZZZ=              0.0000  XYY=              0.0000
  XXY=              0.0000  XXZ=              0.0014  XZZ=              0.0000  YZZ=              0.0000
  YYZ=              0.0000  XYZ=              0.0001
 Hexadecapole moment (field-independent basis, Debye-Ang**3):
 XXXX=         -24282.8415 YYYY=           -265.7693 ZZZZ=            -87.0742 XXXY=            -10.0537
 XXXZ=             -0.0010 YYYX=              6.1019 YYYZ=              0.0000 ZZZX=              0.0000
 ZZZY=              0.0000 XXYY=          -4061.6464 XXZZ=          -4695.6695 YYZZ=            -67.9436
 XXYZ=              0.0000 YYXZ=              0.0000 ZZXY=              0.3800
 N-N= 9.263551501898D+02 E-N=-3.447496599716D+03  KE= 6.778562772710D+02
 1\1\GINC-PC-AVL46\FOpt\RB3LYP\STO-3G\C18H20\BING\28-Jan-2019\0\\# opt(
 tight) b3lyp/sto-3g\\c18h20\\0,1\C,1.098641883,-0.4965364197,-0.197216
 6522\C,1.6669514445,0.3758931473,-1.0546044995\C,3.1231793618,0.578157
 5566,-1.1838426788\C,3.6924588545,1.4630778707,-2.0538800333\C,5.13661
 48675,1.6674114709,-2.1858575425\C,5.7054618058,2.5558922568,-3.059536
 6201\C,7.1456607124,2.7609771399,-3.1924832493\C,7.7143749793,3.650802
 974,-4.0675344271\C,9.1531477008,3.856197733,-4.2008693467\C,9.7218105
 144,4.7463952368,-5.0762980471\C,11.1605830463,4.9517919636,-5.2096319
 749\C,11.7292960022,5.8416213601,-6.0846804019\C,13.1694944133,6.04671
 09083,-6.2176251674\C,13.738338876,6.9351984717,-7.0912989906\C,15.182
 4940606,7.1395404276,-7.2232724869\C,15.7517702054,8.0244697474,-8.093
 3028856\C,17.2079972419,8.2267416979,-8.2225388968\C,17.7763029062,9.0
 991825947,-9.0799178074\H,0.0110870586,-0.6172824736,-0.131518174\H,1.
 7019144406,-1.1227840403,0.4713264071\H,1.0315592827,0.9889160168,-1.7
 113798682\H,3.7675667804,-0.0298724173,-0.5316703944\H,3.0443050635,2.
 0692235642,-2.7043332019\H,5.7864078485,1.0622514804,-1.5363203259\H,5
 .0544311416,3.1604234613,-3.7084974939\H,7.7973236025,2.1568153225,-2.
 5438637087\H,7.0622488674,4.2547270943,-4.7159348099\H,9.805451376,3.2
 523769691,-3.552563517\H,9.0695065969,5.3502170155,-5.7246026967\H,11.
 812709806,4.3478683321,-4.5612317899\H,11.0776320266,6.4457843077,-6.7
 332978085\H,13.8205265213,5.442180001,-5.5686654615\H,13.088544069,7.5
 403600413,-7.7408329066\H,15.8306499832,6.533393767,-6.5728223462\H,15
 .1073804411,8.632501312,-8.7454713497\H,17.8433918464,7.6137197411,-7.
 5657650518\H,17.1730274519,9.725435062,-9.7484537021\H,18.8638569197,9
 .219939305,-9.1456100919\\Version=ES64L-G09RevD.01\State=1-A\HF=-689.2
 735925\RMSD=4.228e-09\RMSF=3.290e-07\Dipole=0.0000012,0.0000044,0.0000
 024\Quadrupole=3.5096387,-1.8599865,-1.6496523,0.1392067,0.4394047,-5.
 7844971\PG=C01 [X(C18H20)]\\@


 THE MEEK SHALL INHERIT THE EARTH.
 (THE REST OF US WILL ESCAPE TO THE STARS)
 Job cpu time:       0 days  0 hours  4 minutes  0.4 seconds.
 File lengths (MBytes):  RWF=      9 Int=      0 D2E=      0 Chk=      3 Scr=      1
 Normal termination of Gaussian 09 at Mon Jan 28 19:30:02 2019.
