 Entering Gaussian System, Link 0=g09
 Input=c18h38.com
 Output=c18h38.out
 Initial command:
 /apps/g09_d.01/g09/l1.exe "/data/scratch/Gau-51468.inp" -scrdir="/data/scratch/"
 Entering Link 1 = /apps/g09_d.01/g09/l1.exe PID=     51475.
  
 Copyright (c) 1988,1990,1992,1993,1995,1998,2003,2009,2013,
            Gaussian, Inc.  All Rights Reserved.
  
 This is part of the Gaussian(R) 09 program.  It is based on
 the Gaussian(R) 03 system (copyright 2003, Gaussian, Inc.),
 the Gaussian(R) 98 system (copyright 1998, Gaussian, Inc.),
 the Gaussian(R) 94 system (copyright 1995, Gaussian, Inc.),
 the Gaussian 92(TM) system (copyright 1992, Gaussian, Inc.),
 the Gaussian 90(TM) system (copyright 1990, Gaussian, Inc.),
 the Gaussian 88(TM) system (copyright 1988, Gaussian, Inc.),
 the Gaussian 86(TM) system (copyright 1986, Carnegie Mellon
 University), and the Gaussian 82(TM) system (copyright 1983,
 Carnegie Mellon University). Gaussian is a federally registered
 trademark of Gaussian, Inc.
  
 This software contains proprietary and confidential information,
 including trade secrets, belonging to Gaussian, Inc.
  
 This software is provided under written license and may be
 used, copied, transmitted, or stored only in accord with that
 written license.
  
 The following legend is applicable only to US Government
 contracts under FAR:
  
                    RESTRICTED RIGHTS LEGEND
  
 Use, reproduction and disclosure by the US Government is
 subject to restrictions as set forth in subparagraphs (a)
 and (c) of the Commercial Computer Software - Restricted
 Rights clause in FAR 52.227-19.
  
 Gaussian, Inc.
 340 Quinnipiac St., Bldg. 40, Wallingford CT 06492
  
  
 ---------------------------------------------------------------
 Warning -- This program may not be used in any manner that
 competes with the business of Gaussian, Inc. or will provide
 assistance to any competitor of Gaussian, Inc.  The licensee
 of this program is prohibited from giving any competitor of
 Gaussian, Inc. access to this program.  By using this program,
 the user acknowledges that Gaussian, Inc. is engaged in the
 business of creating and licensing software in the field of
 computational chemistry and represents and warrants to the
 licensee that it is not a competitor of Gaussian, Inc. and that
 it will not use this program in any manner prohibited above.
 ---------------------------------------------------------------
  

 Cite this work as:
 Gaussian 09, Revision D.01,
 M. J. Frisch, G. W. Trucks, H. B. Schlegel, G. E. Scuseria, 
 M. A. Robb, J. R. Cheeseman, G. Scalmani, V. Barone, B. Mennucci, 
 G. A. Petersson, H. Nakatsuji, M. Caricato, X. Li, H. P. Hratchian, 
 A. F. Izmaylov, J. Bloino, G. Zheng, J. L. Sonnenberg, M. Hada, 
 M. Ehara, K. Toyota, R. Fukuda, J. Hasegawa, M. Ishida, T. Nakajima, 
 Y. Honda, O. Kitao, H. Nakai, T. Vreven, J. A. Montgomery, Jr., 
 J. E. Peralta, F. Ogliaro, M. Bearpark, J. J. Heyd, E. Brothers, 
 K. N. Kudin, V. N. Staroverov, T. Keith, R. Kobayashi, J. Normand, 
 K. Raghavachari, A. Rendell, J. C. Burant, S. S. Iyengar, J. Tomasi, 
 M. Cossi, N. Rega, J. M. Millam, M. Klene, J. E. Knox, J. B. Cross, 
 V. Bakken, C. Adamo, J. Jaramillo, R. Gomperts, R. E. Stratmann, 
 O. Yazyev, A. J. Austin, R. Cammi, C. Pomelli, J. W. Ochterski, 
 R. L. Martin, K. Morokuma, V. G. Zakrzewski, G. A. Voth, 
 P. Salvador, J. J. Dannenberg, S. Dapprich, A. D. Daniels, 
 O. Farkas, J. B. Foresman, J. V. Ortiz, J. Cioslowski, 
 and D. J. Fox, Gaussian, Inc., Wallingford CT, 2013.
 
 ******************************************
 Gaussian 09:  ES64L-G09RevD.01 24-Apr-2013
                28-Jan-2019 
 ******************************************
 %nproc=6
 Will use up to    6 processors via shared memory.
 -------------------------
 # opt(tight) b3lyp/sto-3g
 -------------------------
 1/7=10,14=-1,18=20,19=15,26=3,38=1/1,3;
 2/9=110,12=2,17=6,18=5,40=1/2;
 3/6=3,11=2,16=1,25=1,30=1,71=1,74=-5/1,2,3;
 4//1;
 5/5=2,38=5/2;
 6/7=2,8=2,9=2,10=2,28=1/1;
 7//1,2,3,16;
 1/7=10,14=-1,18=20,19=15,26=3/3(2);
 2/9=110/2;
 99//99;
 2/9=110/2;
 3/6=3,11=2,16=1,25=1,30=1,71=1,74=-5/1,2,3;
 4/5=5,16=3,69=1/1;
 5/5=2,38=5/2;
 7//1,2,3,16;
 1/7=10,14=-1,18=20,19=15,26=3/3(-5);
 2/9=110/2;
 6/7=2,8=2,9=2,10=2,19=2,28=1/1;
 99/9=1/99;
 ------
 c18h38
 ------
 Symbolic Z-matrix:
 Charge =  0 Multiplicity = 1
 C                     0.08472  -1.16539  -2.5162 
 C                     0.48521  -2.51222  -1.92134 
 C                     1.74413  -2.38269  -1.0563 
 C                     2.1435   -3.73806  -0.46145 
 C                     3.40299  -3.60994   0.40352 
 C                     3.80248  -4.96639   0.9957 
 C                     5.06281  -4.84085   1.85974 
 C                     5.46174  -6.1995    2.44709 
 C                     6.72337  -6.07902   3.30989 
 C                     7.12052  -7.44106   3.89059 
 C                     8.38349  -7.32778   4.75229 
 C                     8.77757  -8.69389   5.32574 
 C                     10.04149  -8.58861   6.18697 
 C                     10.43189  -9.95854   6.75411 
 C                     11.6962  -9.86012   7.61558 
 C                     12.08359  -11.23268   8.17859 
 C                     13.34767  -11.13761   9.04027 
 C                     13.73516  -12.50296   9.60084 
 H                    -0.82792  -1.28902  -3.13646 
 H                     0.90013  -0.76914  -3.15823 
 H                    -0.13101  -0.43495  -1.7075 
 H                     0.67353  -3.22867  -2.75059 
 H                    -0.35556  -2.89544  -1.30276 
 H                     1.5499   -1.66239  -0.23101 
 H                     2.57974  -1.99532  -1.68032 
 H                     2.33736  -4.45793  -1.28723 
 H                     1.30787  -4.12573   0.16234 
 H                     3.2094   -2.89102   1.23013 
 H                     4.23845  -3.22181  -0.22017 
 H                     3.99541  -5.68465   0.16832 
 H                     2.96724  -5.35506   1.61938 
 H                     4.87047  -4.12418   2.68859 
 H                     5.89785  -4.4515    1.23626 
 H                     5.65277  -6.91511   1.61695 
 H                     4.6268   -6.58938   3.07043 
 H                     6.53323  -5.36552   4.14196 
 H                     7.55818  -5.68841   2.6869 
 H                     7.30893  -8.15321   3.05689 
 H                     6.28555  -7.83207   4.5132 
 H                     8.1961   -6.61789   5.58806 
 H                     9.21854  -6.93622   4.13023 
 H                     8.96326  -9.4024    4.48833 
 H                     7.94207  -9.08567   5.94713 
 H                     9.85669  -7.88202   7.02611 
 H                     10.87728  -8.19657   5.56619 
 H                     10.61542  -10.66398   5.91364 
 H                     9.59547  -10.35065   7.37406 
 H                     11.51322  -9.15595   8.45717 
 H                     12.53295  -9.46799   6.99612 
 H                     12.26615  -11.93633   7.33638 
 H                     11.24653  -11.625    8.79756 
 H                     13.17117  -10.43895   9.88706 
 H                     14.18996  -10.74951   8.42685 
 H                     12.91799  -12.90531   10.23682 
 H                     14.65188  -12.40498   10.21963 
 H                     13.93882  -13.2162   8.77382 
 

 GradGradGradGradGradGradGradGradGradGradGradGradGradGradGradGradGradGrad
 Berny optimization.
 Initialization pass.
                           ----------------------------
                           !    Initial Parameters    !
                           ! (Angstroms and Degrees)  !
 --------------------------                            --------------------------
 ! Name  Definition              Value          Derivative Info.                !
 --------------------------------------------------------------------------------
 ! R1    R(1,2)                  1.5258         estimate D2E/DX2                !
 ! R2    R(1,19)                 1.1104         estimate D2E/DX2                !
 ! R3    R(1,20)                 1.1109         estimate D2E/DX2                !
 ! R4    R(1,21)                 1.1109         estimate D2E/DX2                !
 ! R5    R(2,3)                  1.533          estimate D2E/DX2                !
 ! R6    R(2,22)                 1.1119         estimate D2E/DX2                !
 ! R7    R(2,23)                 1.1119         estimate D2E/DX2                !
 ! R8    R(3,4)                  1.5331         estimate D2E/DX2                !
 ! R9    R(3,24)                 1.1125         estimate D2E/DX2                !
 ! R10   R(3,25)                 1.1125         estimate D2E/DX2                !
 ! R11   R(4,5)                  1.5333         estimate D2E/DX2                !
 ! R12   R(4,26)                 1.1125         estimate D2E/DX2                !
 ! R13   R(4,27)                 1.1125         estimate D2E/DX2                !
 ! R14   R(5,6)                  1.533          estimate D2E/DX2                !
 ! R15   R(5,28)                 1.1125         estimate D2E/DX2                !
 ! R16   R(5,29)                 1.1125         estimate D2E/DX2                !
 ! R17   R(6,7)                  1.5332         estimate D2E/DX2                !
 ! R18   R(6,30)                 1.1125         estimate D2E/DX2                !
 ! R19   R(6,31)                 1.1125         estimate D2E/DX2                !
 ! R20   R(7,8)                  1.533          estimate D2E/DX2                !
 ! R21   R(7,32)                 1.1125         estimate D2E/DX2                !
 ! R22   R(7,33)                 1.1125         estimate D2E/DX2                !
 ! R23   R(8,9)                  1.5332         estimate D2E/DX2                !
 ! R24   R(8,34)                 1.1125         estimate D2E/DX2                !
 ! R25   R(8,35)                 1.1125         estimate D2E/DX2                !
 ! R26   R(9,10)                 1.533          estimate D2E/DX2                !
 ! R27   R(9,36)                 1.1125         estimate D2E/DX2                !
 ! R28   R(9,37)                 1.1125         estimate D2E/DX2                !
 ! R29   R(10,11)                1.5331         estimate D2E/DX2                !
 ! R30   R(10,38)                1.1125         estimate D2E/DX2                !
 ! R31   R(10,39)                1.1125         estimate D2E/DX2                !
 ! R32   R(11,12)                1.5331         estimate D2E/DX2                !
 ! R33   R(11,40)                1.1125         estimate D2E/DX2                !
 ! R34   R(11,41)                1.1125         estimate D2E/DX2                !
 ! R35   R(12,13)                1.5331         estimate D2E/DX2                !
 ! R36   R(12,42)                1.1125         estimate D2E/DX2                !
 ! R37   R(12,43)                1.1125         estimate D2E/DX2                !
 ! R38   R(13,14)                1.5332         estimate D2E/DX2                !
 ! R39   R(13,44)                1.1125         estimate D2E/DX2                !
 ! R40   R(13,45)                1.1125         estimate D2E/DX2                !
 ! R41   R(14,15)                1.5331         estimate D2E/DX2                !
 ! R42   R(14,46)                1.1125         estimate D2E/DX2                !
 ! R43   R(14,47)                1.1125         estimate D2E/DX2                !
 ! R44   R(15,16)                1.5333         estimate D2E/DX2                !
 ! R45   R(15,48)                1.1125         estimate D2E/DX2                !
 ! R46   R(15,49)                1.1125         estimate D2E/DX2                !
 ! R47   R(16,17)                1.5328         estimate D2E/DX2                !
 ! R48   R(16,50)                1.1126         estimate D2E/DX2                !
 ! R49   R(16,51)                1.1125         estimate D2E/DX2                !
 ! R50   R(17,18)                1.526          estimate D2E/DX2                !
 ! R51   R(17,52)                1.1119         estimate D2E/DX2                !
 ! R52   R(17,53)                1.1119         estimate D2E/DX2                !
 ! R53   R(18,54)                1.1109         estimate D2E/DX2                !
 ! R54   R(18,55)                1.1103         estimate D2E/DX2                !
 ! R55   R(18,56)                1.1109         estimate D2E/DX2                !
 ! A1    A(2,1,19)             109.5865         estimate D2E/DX2                !
 ! A2    A(2,1,20)             110.3345         estimate D2E/DX2                !
 ! A3    A(2,1,21)             110.3375         estimate D2E/DX2                !
 ! A4    A(19,1,20)            108.6734         estimate D2E/DX2                !
 ! A5    A(19,1,21)            108.6779         estimate D2E/DX2                !
 ! A6    A(20,1,21)            109.1916         estimate D2E/DX2                !
 ! A7    A(1,2,3)              111.1593         estimate D2E/DX2                !
 ! A8    A(1,2,22)             108.8105         estimate D2E/DX2                !
 ! A9    A(1,2,23)             108.8219         estimate D2E/DX2                !
 ! A10   A(3,2,22)             109.6449         estimate D2E/DX2                !
 ! A11   A(3,2,23)             109.6433         estimate D2E/DX2                !
 ! A12   A(22,2,23)            108.7159         estimate D2E/DX2                !
 ! A13   A(2,3,4)              110.9885         estimate D2E/DX2                !
 ! A14   A(2,3,24)             109.2653         estimate D2E/DX2                !
 ! A15   A(2,3,25)             109.2525         estimate D2E/DX2                !
 ! A16   A(4,3,24)             109.2717         estimate D2E/DX2                !
 ! A17   A(4,3,25)             109.2568         estimate D2E/DX2                !
 ! A18   A(24,3,25)            108.7713         estimate D2E/DX2                !
 ! A19   A(3,4,5)              111.0388         estimate D2E/DX2                !
 ! A20   A(3,4,26)             109.2349         estimate D2E/DX2                !
 ! A21   A(3,4,27)             109.2663         estimate D2E/DX2                !
 ! A22   A(5,4,26)             109.2484         estimate D2E/DX2                !
 ! A23   A(5,4,27)             109.2571         estimate D2E/DX2                !
 ! A24   A(26,4,27)            108.7594         estimate D2E/DX2                !
 ! A25   A(4,5,6)              110.9795         estimate D2E/DX2                !
 ! A26   A(4,5,28)             109.2826         estimate D2E/DX2                !
 ! A27   A(4,5,29)             109.255          estimate D2E/DX2                !
 ! A28   A(6,5,28)             109.2761         estimate D2E/DX2                !
 ! A29   A(6,5,29)             109.2419         estimate D2E/DX2                !
 ! A30   A(28,5,29)            108.7711         estimate D2E/DX2                !
 ! A31   A(5,6,7)              111.066          estimate D2E/DX2                !
 ! A32   A(5,6,30)             109.2181         estimate D2E/DX2                !
 ! A33   A(5,6,31)             109.2706         estimate D2E/DX2                !
 ! A34   A(7,6,30)             109.2338         estimate D2E/DX2                !
 ! A35   A(7,6,31)             109.2582         estimate D2E/DX2                !
 ! A36   A(30,6,31)            108.7578         estimate D2E/DX2                !
 ! A37   A(6,7,8)              110.9322         estimate D2E/DX2                !
 ! A38   A(6,7,32)             109.299          estimate D2E/DX2                !
 ! A39   A(6,7,33)             109.2588         estimate D2E/DX2                !
 ! A40   A(8,7,32)             109.298          estimate D2E/DX2                !
 ! A41   A(8,7,33)             109.2432         estimate D2E/DX2                !
 ! A42   A(32,7,33)            108.776          estimate D2E/DX2                !
 ! A43   A(7,8,9)              111.1067         estimate D2E/DX2                !
 ! A44   A(7,8,34)             109.2003         estimate D2E/DX2                !
 ! A45   A(7,8,35)             109.2667         estimate D2E/DX2                !
 ! A46   A(9,8,34)             109.2178         estimate D2E/DX2                !
 ! A47   A(9,8,35)             109.2568         estimate D2E/DX2                !
 ! A48   A(34,8,35)            108.7553         estimate D2E/DX2                !
 ! A49   A(8,9,10)             110.8874         estimate D2E/DX2                !
 ! A50   A(8,9,36)             109.3092         estimate D2E/DX2                !
 ! A51   A(8,9,37)             109.2655         estimate D2E/DX2                !
 ! A52   A(10,9,36)            109.3172         estimate D2E/DX2                !
 ! A53   A(10,9,37)            109.2496         estimate D2E/DX2                !
 ! A54   A(36,9,37)            108.779          estimate D2E/DX2                !
 ! A55   A(9,10,11)            111.1417         estimate D2E/DX2                !
 ! A56   A(9,10,38)            109.1926         estimate D2E/DX2                !
 ! A57   A(9,10,39)            109.258          estimate D2E/DX2                !
 ! A58   A(11,10,38)           109.2068         estimate D2E/DX2                !
 ! A59   A(11,10,39)           109.2501         estimate D2E/DX2                !
 ! A60   A(38,10,39)           108.7539         estimate D2E/DX2                !
 ! A61   A(10,11,12)           110.8638         estimate D2E/DX2                !
 ! A62   A(10,11,40)           109.3081         estimate D2E/DX2                !
 ! A63   A(10,11,41)           109.2737         estimate D2E/DX2                !
 ! A64   A(12,11,40)           109.3237         estimate D2E/DX2                !
 ! A65   A(12,11,41)           109.2593         estimate D2E/DX2                !
 ! A66   A(40,11,41)           108.7797         estimate D2E/DX2                !
 ! A67   A(11,12,13)           111.1527         estimate D2E/DX2                !
 ! A68   A(11,12,42)           109.198          estimate D2E/DX2                !
 ! A69   A(11,12,43)           109.2493         estimate D2E/DX2                !
 ! A70   A(13,12,42)           109.2067         estimate D2E/DX2                !
 ! A71   A(13,12,43)           109.2424         estimate D2E/DX2                !
 ! A72   A(42,12,43)           108.7537         estimate D2E/DX2                !
 ! A73   A(12,13,14)           110.8771         estimate D2E/DX2                !
 ! A74   A(12,13,44)           109.2937         estimate D2E/DX2                !
 ! A75   A(12,13,45)           109.2757         estimate D2E/DX2                !
 ! A76   A(14,13,44)           109.3168         estimate D2E/DX2                !
 ! A77   A(14,13,45)           109.2677         estimate D2E/DX2                !
 ! A78   A(44,13,45)           108.777          estimate D2E/DX2                !
 ! A79   A(13,14,15)           111.13           estimate D2E/DX2                !
 ! A80   A(13,14,46)           109.2151         estimate D2E/DX2                !
 ! A81   A(13,14,47)           109.245          estimate D2E/DX2                !
 ! A82   A(15,14,46)           109.2186         estimate D2E/DX2                !
 ! A83   A(15,14,47)           109.2397         estimate D2E/DX2                !
 ! A84   A(46,14,47)           108.7549         estimate D2E/DX2                !
 ! A85   A(14,15,16)           110.93           estimate D2E/DX2                !
 ! A86   A(14,15,48)           109.2741         estimate D2E/DX2                !
 ! A87   A(14,15,49)           109.27           estimate D2E/DX2                !
 ! A88   A(16,15,48)           109.2929         estimate D2E/DX2                !
 ! A89   A(16,15,49)           109.2663         estimate D2E/DX2                !
 ! A90   A(48,15,49)           108.774          estimate D2E/DX2                !
 ! A91   A(15,16,17)           111.0549         estimate D2E/DX2                !
 ! A92   A(15,16,50)           109.248          estimate D2E/DX2                !
 ! A93   A(15,16,51)           109.261          estimate D2E/DX2                !
 ! A94   A(17,16,50)           109.2365         estimate D2E/DX2                !
 ! A95   A(17,16,51)           109.2445         estimate D2E/DX2                !
 ! A96   A(50,16,51)           108.7599         estimate D2E/DX2                !
 ! A97   A(16,17,18)           111.1269         estimate D2E/DX2                !
 ! A98   A(16,17,52)           109.645          estimate D2E/DX2                !
 ! A99   A(16,17,53)           109.6474         estimate D2E/DX2                !
 ! A100  A(18,17,52)           108.8295         estimate D2E/DX2                !
 ! A101  A(18,17,53)           108.8205         estimate D2E/DX2                !
 ! A102  A(52,17,53)           108.7276         estimate D2E/DX2                !
 ! A103  A(17,18,54)           110.3391         estimate D2E/DX2                !
 ! A104  A(17,18,55)           109.598          estimate D2E/DX2                !
 ! A105  A(17,18,56)           110.336          estimate D2E/DX2                !
 ! A106  A(54,18,55)           108.6767         estimate D2E/DX2                !
 ! A107  A(54,18,56)           109.1781         estimate D2E/DX2                !
 ! A108  A(55,18,56)           108.6733         estimate D2E/DX2                !
 ! D1    D(19,1,2,3)           179.9998         estimate D2E/DX2                !
 ! D2    D(19,1,2,22)           59.1573         estimate D2E/DX2                !
 ! D3    D(19,1,2,23)          -59.1524         estimate D2E/DX2                !
 ! D4    D(20,1,2,3)            60.3769         estimate D2E/DX2                !
 ! D5    D(20,1,2,22)          -60.4655         estimate D2E/DX2                !
 ! D6    D(20,1,2,23)         -178.7753         estimate D2E/DX2                !
 ! D7    D(21,1,2,3)           -60.37           estimate D2E/DX2                !
 ! D8    D(21,1,2,22)          178.7876         estimate D2E/DX2                !
 ! D9    D(21,1,2,23)           60.4778         estimate D2E/DX2                !
 ! D10   D(1,2,3,4)           -179.9621         estimate D2E/DX2                !
 ! D11   D(1,2,3,24)            59.47           estimate D2E/DX2                !
 ! D12   D(1,2,3,25)           -59.4211         estimate D2E/DX2                !
 ! D13   D(22,2,3,4)           -59.6119         estimate D2E/DX2                !
 ! D14   D(22,2,3,24)          179.8203         estimate D2E/DX2                !
 ! D15   D(22,2,3,25)           60.9292         estimate D2E/DX2                !
 ! D16   D(23,2,3,4)            59.6745         estimate D2E/DX2                !
 ! D17   D(23,2,3,24)          -60.8933         estimate D2E/DX2                !
 ! D18   D(23,2,3,25)         -179.7845         estimate D2E/DX2                !
 ! D19   D(2,3,4,5)            179.9744         estimate D2E/DX2                !
 ! D20   D(2,3,4,26)            59.4235         estimate D2E/DX2                !
 ! D21   D(2,3,4,27)           -59.4435         estimate D2E/DX2                !
 ! D22   D(24,3,4,5)           -59.4616         estimate D2E/DX2                !
 ! D23   D(24,3,4,26)          179.9875         estimate D2E/DX2                !
 ! D24   D(24,3,4,27)           61.1206         estimate D2E/DX2                !
 ! D25   D(25,3,4,5)            59.4359         estimate D2E/DX2                !
 ! D26   D(25,3,4,26)          -61.115          estimate D2E/DX2                !
 ! D27   D(25,3,4,27)         -179.982          estimate D2E/DX2                !
 ! D28   D(3,4,5,6)           -179.9037         estimate D2E/DX2                !
 ! D29   D(3,4,5,28)            59.5174         estimate D2E/DX2                !
 ! D30   D(3,4,5,29)           -59.3852         estimate D2E/DX2                !
 ! D31   D(26,4,5,6)           -59.3607         estimate D2E/DX2                !
 ! D32   D(26,4,5,28)         -179.9397         estimate D2E/DX2                !
 ! D33   D(26,4,5,29)           61.1577         estimate D2E/DX2                !
 ! D34   D(27,4,5,6)            59.5087         estimate D2E/DX2                !
 ! D35   D(27,4,5,28)          -61.0702         estimate D2E/DX2                !
 ! D36   D(27,4,5,29)         -179.9728         estimate D2E/DX2                !
 ! D37   D(4,5,6,7)            179.9322         estimate D2E/DX2                !
 ! D38   D(4,5,6,30)            59.3933         estimate D2E/DX2                !
 ! D39   D(4,5,6,31)           -59.4643         estimate D2E/DX2                !
 ! D40   D(28,5,6,7)           -59.4851         estimate D2E/DX2                !
 ! D41   D(28,5,6,30)          179.976          estimate D2E/DX2                !
 ! D42   D(28,5,6,31)           61.1184         estimate D2E/DX2                !
 ! D43   D(29,5,6,7)            59.4059         estimate D2E/DX2                !
 ! D44   D(29,5,6,30)          -61.133          estimate D2E/DX2                !
 ! D45   D(29,5,6,31)         -179.9905         estimate D2E/DX2                !
 ! D46   D(5,6,7,8)           -179.8416         estimate D2E/DX2                !
 ! D47   D(5,6,7,32)            59.5715         estimate D2E/DX2                !
 ! D48   D(5,6,7,33)           -59.349          estimate D2E/DX2                !
 ! D49   D(30,6,7,8)           -59.312          estimate D2E/DX2                !
 ! D50   D(30,6,7,32)         -179.8989         estimate D2E/DX2                !
 ! D51   D(30,6,7,33)           61.1806         estimate D2E/DX2                !
 ! D52   D(31,6,7,8)            59.5476         estimate D2E/DX2                !
 ! D53   D(31,6,7,32)          -61.0393         estimate D2E/DX2                !
 ! D54   D(31,6,7,33)         -179.9598         estimate D2E/DX2                !
 ! D55   D(6,7,8,9)            179.894          estimate D2E/DX2                !
 ! D56   D(6,7,8,34)            59.3609         estimate D2E/DX2                !
 ! D57   D(6,7,8,35)           -59.4808         estimate D2E/DX2                !
 ! D58   D(32,7,8,9)           -59.5186         estimate D2E/DX2                !
 ! D59   D(32,7,8,34)          179.9483         estimate D2E/DX2                !
 ! D60   D(32,7,8,35)           61.1066         estimate D2E/DX2                !
 ! D61   D(33,7,8,9)            59.3921         estimate D2E/DX2                !
 ! D62   D(33,7,8,34)          -61.141          estimate D2E/DX2                !
 ! D63   D(33,7,8,35)         -179.9827         estimate D2E/DX2                !
 ! D64   D(7,8,9,10)          -179.802          estimate D2E/DX2                !
 ! D65   D(7,8,9,36)            59.6089         estimate D2E/DX2                !
 ! D66   D(7,8,9,37)           -59.3253         estimate D2E/DX2                !
 ! D67   D(34,8,9,10)          -59.2793         estimate D2E/DX2                !
 ! D68   D(34,8,9,36)         -179.8684         estimate D2E/DX2                !
 ! D69   D(34,8,9,37)           61.1975         estimate D2E/DX2                !
 ! D70   D(35,8,9,10)           59.567          estimate D2E/DX2                !
 ! D71   D(35,8,9,36)          -61.0221         estimate D2E/DX2                !
 ! D72   D(35,8,9,37)         -179.9563         estimate D2E/DX2                !
 ! D73   D(8,9,10,11)          179.8829         estimate D2E/DX2                !
 ! D74   D(8,9,10,38)           59.3465         estimate D2E/DX2                !
 ! D75   D(8,9,10,39)          -59.4839         estimate D2E/DX2                !
 ! D76   D(36,9,10,11)         -59.5328         estimate D2E/DX2                !
 ! D77   D(36,9,10,38)         179.9308         estimate D2E/DX2                !
 ! D78   D(36,9,10,39)          61.1005         estimate D2E/DX2                !
 ! D79   D(37,9,10,11)          59.3967         estimate D2E/DX2                !
 ! D80   D(37,9,10,38)         -61.1397         estimate D2E/DX2                !
 ! D81   D(37,9,10,39)        -179.9701         estimate D2E/DX2                !
 ! D82   D(9,10,11,12)        -179.8069         estimate D2E/DX2                !
 ! D83   D(9,10,11,40)          59.6117         estimate D2E/DX2                !
 ! D84   D(9,10,11,41)         -59.3277         estimate D2E/DX2                !
 ! D85   D(38,10,11,12)        -59.2788         estimate D2E/DX2                !
 ! D86   D(38,10,11,40)       -179.8603         estimate D2E/DX2                !
 ! D87   D(38,10,11,41)         61.2004         estimate D2E/DX2                !
 ! D88   D(39,10,11,12)         59.5552         estimate D2E/DX2                !
 ! D89   D(39,10,11,40)        -61.0263         estimate D2E/DX2                !
 ! D90   D(39,10,11,41)       -179.9656         estimate D2E/DX2                !
 ! D91   D(10,11,12,13)        179.9071         estimate D2E/DX2                !
 ! D92   D(10,11,12,42)         59.3603         estimate D2E/DX2                !
 ! D93   D(10,11,12,43)        -59.4679         estimate D2E/DX2                !
 ! D94   D(40,11,12,13)        -59.5206         estimate D2E/DX2                !
 ! D95   D(40,11,12,42)        179.9325         estimate D2E/DX2                !
 ! D96   D(40,11,12,43)         61.1044         estimate D2E/DX2                !
 ! D97   D(41,11,12,13)         59.4193         estimate D2E/DX2                !
 ! D98   D(41,11,12,42)        -61.1275         estimate D2E/DX2                !
 ! D99   D(41,11,12,43)       -179.9557         estimate D2E/DX2                !
 ! D100  D(11,12,13,14)       -179.8526         estimate D2E/DX2                !
 ! D101  D(11,12,13,44)         59.5754         estimate D2E/DX2                !
 ! D102  D(11,12,13,45)        -59.3533         estimate D2E/DX2                !
 ! D103  D(42,12,13,14)        -59.3109         estimate D2E/DX2                !
 ! D104  D(42,12,13,44)       -179.8829         estimate D2E/DX2                !
 ! D105  D(42,12,13,45)         61.1885         estimate D2E/DX2                !
 ! D106  D(43,12,13,14)         59.5184         estimate D2E/DX2                !
 ! D107  D(43,12,13,44)        -61.0536         estimate D2E/DX2                !
 ! D108  D(43,12,13,45)       -179.9823         estimate D2E/DX2                !
 ! D109  D(12,13,14,15)        179.9513         estimate D2E/DX2                !
 ! D110  D(12,13,14,46)         59.3929         estimate D2E/DX2                !
 ! D111  D(12,13,14,47)        -59.4443         estimate D2E/DX2                !
 ! D112  D(44,13,14,15)        -59.4904         estimate D2E/DX2                !
 ! D113  D(44,13,14,46)        179.9512         estimate D2E/DX2                !
 ! D114  D(44,13,14,47)         61.114          estimate D2E/DX2                !
 ! D115  D(45,13,14,15)         59.4472         estimate D2E/DX2                !
 ! D116  D(45,13,14,46)        -61.1112         estimate D2E/DX2                !
 ! D117  D(45,13,14,47)       -179.9484         estimate D2E/DX2                !
 ! D118  D(13,14,15,16)       -179.9162         estimate D2E/DX2                !
 ! D119  D(13,14,15,48)         59.5209         estimate D2E/DX2                !
 ! D120  D(13,14,15,49)        -59.3891         estimate D2E/DX2                !
 ! D121  D(46,14,15,16)        -59.3598         estimate D2E/DX2                !
 ! D122  D(46,14,15,48)       -179.9227         estimate D2E/DX2                !
 ! D123  D(46,14,15,49)         61.1673         estimate D2E/DX2                !
 ! D124  D(47,14,15,16)         59.4763         estimate D2E/DX2                !
 ! D125  D(47,14,15,48)        -61.0866         estimate D2E/DX2                !
 ! D126  D(47,14,15,49)       -179.9966         estimate D2E/DX2                !
 ! D127  D(14,15,16,17)        179.9889         estimate D2E/DX2                !
 ! D128  D(14,15,16,50)         59.4342         estimate D2E/DX2                !
 ! D129  D(14,15,16,51)        -59.4379         estimate D2E/DX2                !
 ! D130  D(48,15,16,17)        -59.4594         estimate D2E/DX2                !
 ! D131  D(48,15,16,50)        179.9859         estimate D2E/DX2                !
 ! D132  D(48,15,16,51)         61.1139         estimate D2E/DX2                !
 ! D133  D(49,15,16,17)         59.4596         estimate D2E/DX2                !
 ! D134  D(49,15,16,50)        -61.0951         estimate D2E/DX2                !
 ! D135  D(49,15,16,51)       -179.9672         estimate D2E/DX2                !
 ! D136  D(15,16,17,18)       -179.9684         estimate D2E/DX2                !
 ! D137  D(15,16,17,52)         59.6784         estimate D2E/DX2                !
 ! D138  D(15,16,17,53)        -59.6248         estimate D2E/DX2                !
 ! D139  D(50,16,17,18)        -59.4068         estimate D2E/DX2                !
 ! D140  D(50,16,17,52)       -179.76           estimate D2E/DX2                !
 ! D141  D(50,16,17,53)         60.9368         estimate D2E/DX2                !
 ! D142  D(51,16,17,18)         59.4487         estimate D2E/DX2                !
 ! D143  D(51,16,17,52)        -60.9045         estimate D2E/DX2                !
 ! D144  D(51,16,17,53)        179.7923         estimate D2E/DX2                !
 ! D145  D(16,17,18,54)        -60.3601         estimate D2E/DX2                !
 ! D146  D(16,17,18,55)       -179.9971         estimate D2E/DX2                !
 ! D147  D(16,17,18,56)         60.372          estimate D2E/DX2                !
 ! D148  D(52,17,18,54)         60.4744         estimate D2E/DX2                !
 ! D149  D(52,17,18,55)        -59.1626         estimate D2E/DX2                !
 ! D150  D(52,17,18,56)       -178.7935         estimate D2E/DX2                !
 ! D151  D(53,17,18,54)        178.8082         estimate D2E/DX2                !
 ! D152  D(53,17,18,55)         59.1712         estimate D2E/DX2                !
 ! D153  D(53,17,18,56)        -60.4597         estimate D2E/DX2                !
 --------------------------------------------------------------------------------
 Trust Radius=3.00D-01 FncErr=1.00D-07 GrdErr=1.00D-06
 Number of steps in this run=    326 maximum allowed number of steps=    336.
 GradGradGradGradGradGradGradGradGradGradGradGradGradGradGradGradGradGrad

 Stoichiometry    C18H38
 Framework group  C1[X(C18H38)]
 Deg. of freedom   162
 Full point group                 C1      NOp   1
 Largest Abelian subgroup         C1      NOp   1
 Largest concise Abelian subgroup C1      NOp   1
                         Standard orientation:                         
 ---------------------------------------------------------------------
 Center     Atomic      Atomic             Coordinates (Angstroms)
 Number     Number       Type             X           Y           Z
 ---------------------------------------------------------------------
      1          6           0      -10.741949    0.305565   -0.032405
      2          6           0       -9.468235   -0.534473   -0.018627
      3          6           0       -8.219239    0.354314   -0.014263
      4          6           0       -6.941990   -0.493529   -0.001364
      5          6           0       -5.691957    0.394338    0.002372
      6          6           0       -4.415610   -0.454812    0.012866
      7          6           0       -3.164269    0.431133    0.014922
      8          6           0       -1.889938   -0.420978    0.021460
      9          6           0       -0.635925    0.461121    0.020889
     10          6           0        0.635152   -0.395881    0.022491
     11          6           0        1.893014    0.480602    0.019005
     12          6           0        3.159995   -0.382618    0.015799
     13          6           0        4.422211    0.487481    0.009986
     14          6           0        5.685108   -0.381893    0.003119
     15          6           0        6.951146    0.482627   -0.003932
     16          6           0        8.211043   -0.391187   -0.012877
     17          6           0        9.478726    0.470413   -0.020219
     18          6           0       10.733692   -0.397650   -0.029913
     19          1           0      -11.628627   -0.362800   -0.035308
     20          1           0      -10.774112    0.943086   -0.941604
     21          1           0      -10.787313    0.952863    0.869274
     22          1           0       -9.459450   -1.187160   -0.918818
     23          1           0       -9.472486   -1.177656    0.888395
     24          1           0       -8.236060    1.006625    0.886774
     25          1           0       -8.223528    0.997503   -0.922002
     26          1           0       -6.925905   -1.145744   -0.902509
     27          1           0       -6.937695   -1.137021    0.906149
     28          1           0       -5.706918    1.046023    0.903865
     29          1           0       -5.696536    1.038151   -0.904882
     30          1           0       -4.401848   -1.106400   -0.888755
     31          1           0       -4.410624   -1.098974    0.919892
     32          1           0       -3.176014    1.081918    0.917111
     33          1           0       -3.169612    1.075805   -0.891710
     34          1           0       -1.880313   -1.071740   -0.880836
     35          1           0       -1.884345   -1.066073    0.927830
     36          1           0       -0.642815    1.110869    0.923861
     37          1           0       -0.641769    1.106829   -0.884996
     38          1           0        0.639310   -1.045629   -0.880572
     39          1           0        0.640876   -1.042072    0.928091
     40          1           0        1.891831    1.129296    0.922756
     41          1           0        1.887381    1.127393   -0.886101
     42          1           0        3.158445   -1.031274   -0.888063
     43          1           0        3.165063   -1.029934    0.920583
     44          1           0        4.426287    1.135249    0.914396
     45          1           0        4.417549    1.135267   -0.894425
     46          1           0        5.678871   -1.029548   -0.901438
     47          1           0        5.688921   -1.030195    0.907208
     48          1           0        6.959015    1.129672    0.900990
     49          1           0        6.947817    1.131195   -0.907811
     50          1           0        8.202286   -1.038106   -0.917967
     51          1           0        8.213985   -1.040154    0.890750
     52          1           0        9.496540    1.116922    0.884237
     53          1           0        9.484467    1.119369   -0.923093
     54          1           0       10.764312   -1.042249    0.874343
     55          1           0       11.635023    0.250772   -0.035029
     56          1           0       10.752146   -1.039527   -0.936447
 ---------------------------------------------------------------------
 Rotational constants (GHZ):      4.4913188      0.0453489      0.0451342
 Standard basis: STO-3G (5D, 7F)
 There are   128 symmetry adapted cartesian basis functions of A   symmetry.
 There are   128 symmetry adapted basis functions of A   symmetry.
   128 basis functions,   384 primitive gaussians,   128 cartesian basis functions
    73 alpha electrons       73 beta electrons
       nuclear repulsion energy      1184.5879235641 Hartrees.
 NAtoms=   56 NActive=   56 NUniq=   56 SFac= 1.00D+00 NAtFMM=   60 NAOKFM=F Big=F
 Integral buffers will be    131072 words long.
 Raffenetti 2 integral format.
 Two-electron integral symmetry is turned on.
 One-electron integrals computed using PRISM.
 NBasis=   128 RedAO= T EigKep=  2.02D-01  NBF=   128
 NBsUse=   128 1.00D-06 EigRej= -1.00D+00 NBFU=   128
 ExpMin= 1.69D-01 ExpMax= 7.16D+01 ExpMxC= 7.16D+01 IAcc=1 IRadAn=         1 AccDes= 0.00D+00
 Harris functional with IExCor=  402 and IRadAn=       1 diagonalized for initial guess.
 HarFok:  IExCor=  402 AccDes= 0.00D+00 IRadAn=         1 IDoV= 1 UseB2=F ITyADJ=14
 ICtDFT=  3500011 ScaDFX=  1.000000  1.000000  1.000000  1.000000
 FoFCou: FMM=F IPFlag=           0 FMFlag=      100000 FMFlg1=           0
         NFxFlg=           0 DoJE=T BraDBF=F KetDBF=T FulRan=T
         wScrn=  0.000000 ICntrl=     500 IOpCl=  0 I1Cent=   200000004 NGrid=           0
         NMat0=    1 NMatS0=      1 NMatT0=    0 NMatD0=    1 NMtDS0=    0 NMtDT0=    0
 Petite list used in FoFCou.
 Requested convergence on RMS density matrix=1.00D-08 within 128 cycles.
 Requested convergence on MAX density matrix=1.00D-06.
 Requested convergence on             energy=1.00D-06.
 No special actions if energy rises.
 Integral accuracy reduced to 1.0D-05 until final iterations.
 Initial convergence to 1.0D-05 achieved.  Increase integral accuracy.
 SCF Done:  E(RB3LYP) =  -700.441178715     A.U. after   10 cycles
            NFock= 10  Conv=0.35D-08     -V/T= 2.0179

 **********************************************************************

            Population analysis using the SCF density.

 **********************************************************************

 Orbital symmetries:
       Occupied  (A) (A) (A) (A) (A) (A) (A) (A) (A) (A) (A) (A)
                 (A) (A) (A) (A) (A) (A) (A) (A) (A) (A) (A) (A)
                 (A) (A) (A) (A) (A) (A) (A) (A) (A) (A) (A) (A)
                 (A) (A) (A) (A) (A) (A) (A) (A) (A) (A) (A) (A)
                 (A) (A) (A) (A) (A) (A) (A) (A) (A) (A) (A) (A)
                 (A) (A) (A) (A) (A) (A) (A) (A) (A) (A) (A) (A)
                 (A)
       Virtual   (A) (A) (A) (A) (A) (A) (A) (A) (A) (A) (A) (A)
                 (A) (A) (A) (A) (A) (A) (A) (A) (A) (A) (A) (A)
                 (A) (A) (A) (A) (A) (A) (A) (A) (A) (A) (A) (A)
                 (A) (A) (A) (A) (A) (A) (A) (A) (A) (A) (A) (A)
                 (A) (A) (A) (A) (A) (A) (A)
 The electronic state is 1-A.
 Alpha  occ. eigenvalues --  -10.00549 -10.00549 -10.00278 -10.00278 -10.00219
 Alpha  occ. eigenvalues --  -10.00218 -10.00201 -10.00187 -10.00169 -10.00150
 Alpha  occ. eigenvalues --  -10.00129 -10.00107 -10.00084 -10.00061 -10.00038
 Alpha  occ. eigenvalues --  -10.00017  -9.99825  -9.99824  -0.77566  -0.77048
 Alpha  occ. eigenvalues --   -0.76149  -0.74881  -0.73258  -0.71297  -0.69021
 Alpha  occ. eigenvalues --   -0.66464  -0.63674  -0.60749  -0.57858  -0.55298
 Alpha  occ. eigenvalues --   -0.54028  -0.53831  -0.53407  -0.53273  -0.52641
 Alpha  occ. eigenvalues --   -0.52566  -0.45498  -0.44997  -0.44139  -0.42958
 Alpha  occ. eigenvalues --   -0.41494  -0.39801  -0.39239  -0.39002  -0.38285
 Alpha  occ. eigenvalues --   -0.37950  -0.37176  -0.36890  -0.36031  -0.35188
 Alpha  occ. eigenvalues --   -0.34358  -0.34145  -0.33439  -0.32408  -0.31806
 Alpha  occ. eigenvalues --   -0.31037  -0.30924  -0.30395  -0.29753  -0.29386
 Alpha  occ. eigenvalues --   -0.28934  -0.28613  -0.28443  -0.28221  -0.28189
 Alpha  occ. eigenvalues --   -0.28127  -0.28088  -0.28081  -0.27813  -0.27648
 Alpha  occ. eigenvalues --   -0.27574  -0.24654  -0.22593
 Alpha virt. eigenvalues --    0.32046   0.33966   0.34377   0.34980   0.35981
 Alpha virt. eigenvalues --    0.36723   0.37313   0.38895   0.39581   0.39596
 Alpha virt. eigenvalues --    0.39698   0.39961   0.40025   0.40522   0.40633
 Alpha virt. eigenvalues --    0.41571   0.42348   0.42431   0.43315   0.44173
 Alpha virt. eigenvalues --    0.44201   0.45409   0.45719   0.45799   0.45892
 Alpha virt. eigenvalues --    0.46586   0.47115   0.47472   0.47578   0.48138
 Alpha virt. eigenvalues --    0.48293   0.48707   0.48910   0.48960   0.49015
 Alpha virt. eigenvalues --    0.49430   0.49864   0.50388   0.50403   0.50882
 Alpha virt. eigenvalues --    0.51395   0.51808   0.51871   0.52176   0.52646
 Alpha virt. eigenvalues --    0.52740   0.53128   0.53170   0.53176   0.53700
 Alpha virt. eigenvalues --    0.53719   0.54435   0.55530   0.56384   0.56946
          Condensed to atoms (all electrons):
 Mulliken charges:
               1
     1  C   -0.210271
     2  C   -0.125089
     3  C   -0.125371
     4  C   -0.125638
     5  C   -0.125738
     6  C   -0.125648
     7  C   -0.125757
     8  C   -0.125616
     9  C   -0.125787
    10  C   -0.125594
    11  C   -0.125802
    12  C   -0.125592
    13  C   -0.125790
    14  C   -0.125619
    15  C   -0.125725
    16  C   -0.125308
    17  C   -0.125130
    18  C   -0.210253
    19  H    0.067958
    20  H    0.067567
    21  H    0.067572
    22  H    0.064893
    23  H    0.064899
    24  H    0.063448
    25  H    0.063439
    26  H    0.063073
    27  H    0.063083
    28  H    0.062945
    29  H    0.062933
    30  H    0.062889
    31  H    0.062903
    32  H    0.062906
    33  H    0.062891
    34  H    0.062843
    35  H    0.062863
    36  H    0.062902
    37  H    0.062884
    38  H    0.062836
    39  H    0.062852
    40  H    0.062910
    41  H    0.062894
    42  H    0.062847
    43  H    0.062865
    44  H    0.062940
    45  H    0.062926
    46  H    0.062901
    47  H    0.062912
    48  H    0.063108
    49  H    0.063099
    50  H    0.063419
    51  H    0.063429
    52  H    0.064915
    53  H    0.064911
    54  H    0.067561
    55  H    0.067958
    56  H    0.067557
 Sum of Mulliken charges =   0.00000
 Mulliken charges with hydrogens summed into heavy atoms:
               1
     1  C   -0.007174
     2  C    0.004702
     3  C    0.001517
     4  C    0.000518
     5  C    0.000140
     6  C    0.000144
     7  C    0.000040
     8  C    0.000090
     9  C   -0.000001
    10  C    0.000094
    11  C    0.000001
    12  C    0.000121
    13  C    0.000075
    14  C    0.000194
    15  C    0.000482
    16  C    0.001539
    17  C    0.004696
    18  C   -0.007177
 Electronic spatial extent (au):  <R**2>=          23652.2224
 Charge=              0.0000 electrons
 Dipole moment (field-independent basis, Debye):
    X=              0.0004    Y=             -0.0036    Z=             -0.0009  Tot=              0.0037
 Quadrupole moment (field-independent basis, Debye-Ang):
   XX=           -117.8618   YY=           -113.8563   ZZ=           -110.4364
   XY=              0.6328   XZ=             -0.0014   YZ=              0.0068
 Traceless Quadrupole moment (field-independent basis, Debye-Ang):
   XX=             -3.8103   YY=              0.1952   ZZ=              3.6151
   XY=              0.6328   XZ=             -0.0014   YZ=              0.0068
 Octapole moment (field-independent basis, Debye-Ang**2):
  XXX=              0.3421  YYY=             -0.0167  ZZZ=              0.0124  XYY=             -0.1370
  XXY=              0.2449  XXZ=              0.4551  XZZ=             -0.0077  YZZ=              0.0140
  YYZ=              0.0036  XYZ=             -0.0975
 Hexadecapole moment (field-independent basis, Debye-Ang**3):
 XXXX=         -31176.7822 YYYY=           -387.4238 ZZZZ=           -217.3746 XXXY=            155.6838
 XXXZ=             -0.4530 YYYX=              0.4306 YYYZ=              0.1017 ZZZX=              0.0351
 ZZZY=             -0.0669 XXYY=          -5112.1252 XXZZ=          -4957.9868 YYZZ=            -86.7487
 XXYZ=              0.2558 YYXZ=             -0.0193 ZZXY=             -6.5623
 N-N= 1.184587923564D+03 E-N=-3.985587554721D+03  KE= 6.881228313282D+02
 Calling FoFJK, ICntrl=      2127 FMM=F ISym2X=0 I1Cent= 0 IOpClX= 0 NMat=1 NMatS=1 NMatT=0.
 ***** Axes restored to original set *****
 -------------------------------------------------------------------
 Center     Atomic                   Forces (Hartrees/Bohr)
 Number     Number              X              Y              Z
 -------------------------------------------------------------------
      1        6          -0.010015717    0.018151308   -0.011301381
      2        6          -0.010345378   -0.012825458   -0.004398363
      3        6           0.006510244    0.011382798    0.002000598
      4        6          -0.006750296   -0.011798032   -0.002090044
      5        6           0.006744885    0.011781134    0.002092050
      6        6          -0.006781176   -0.011719003   -0.002144273
      7        6           0.006774184    0.011757530    0.002136068
      8        6          -0.006776545   -0.011709082   -0.002177402
      9        6           0.006808521    0.011726811    0.002180393
     10        6          -0.006813203   -0.011679556   -0.002219937
     11        6           0.006871802    0.011674682    0.002264052
     12        6          -0.006855331   -0.011639971   -0.002289930
     13        6           0.006942664    0.011634732    0.002337237
     14        6          -0.006896499   -0.011627287   -0.002325701
     15        6           0.006949266    0.011658462    0.002354028
     16        6          -0.006682803   -0.011212118   -0.002285352
     17        6           0.010561515    0.012556660    0.004696269
     18        6           0.009844577   -0.018501345    0.010800465
     19        1           0.005728046    0.004472123    0.003047474
     20        1          -0.006832280   -0.000427074    0.004654914
     21        1           0.001740892   -0.003207181   -0.007419948
     22        1          -0.002489812    0.001361878    0.006705088
     23        1           0.005510869   -0.001229736   -0.004573306
     24        1           0.003415421   -0.002472363   -0.006206329
     25        1          -0.004983917    0.000250128    0.005626685
     26        1          -0.003540345    0.002544186    0.006162626
     27        1           0.004885249   -0.000157868   -0.005735589
     28        1           0.003511439   -0.002509883   -0.006147702
     29        1          -0.004889839    0.000216610    0.005719357
     30        1          -0.003531778    0.002499760    0.006178598
     31        1           0.004885791   -0.000159632   -0.005726769
     32        1           0.003501663   -0.002505520   -0.006155385
     33        1          -0.004884239    0.000211317    0.005725976
     34        1          -0.003531892    0.002482740    0.006209854
     35        1           0.004890052   -0.000145375   -0.005732328
     36        1           0.003491404   -0.002493355   -0.006154434
     37        1          -0.004874105    0.000195153    0.005730456
     38        1          -0.003529656    0.002459963    0.006220864
     39        1           0.004889862   -0.000131065   -0.005745496
     40        1           0.003488314   -0.002479677   -0.006158693
     41        1          -0.004860666    0.000170712    0.005733273
     42        1          -0.003524926    0.002450029    0.006229769
     43        1           0.004873475   -0.000123395   -0.005750216
     44        1           0.003493849   -0.002467347   -0.006162277
     45        1          -0.004852790    0.000139389    0.005743244
     46        1          -0.003512949    0.002443261    0.006227720
     47        1           0.004867563   -0.000114682   -0.005755508
     48        1           0.003506953   -0.002466737   -0.006175744
     49        1          -0.004850338    0.000103505    0.005764082
     50        1          -0.003387725    0.002397485    0.006291454
     51        1           0.004947597   -0.000148149   -0.005655372
     52        1           0.002466011   -0.001219961   -0.006710620
     53        1          -0.005465588    0.001198547    0.004636486
     54        1           0.006819006    0.000490505   -0.004661914
     55        1          -0.005784808   -0.004315736   -0.003115473
     56        1          -0.001676514    0.003075182    0.007506408
 -------------------------------------------------------------------
 Cartesian Forces:  Max     0.018501345 RMS     0.006222886

 GradGradGradGradGradGradGradGradGradGradGradGradGradGradGradGradGradGrad
 Berny optimization.
 FormGI is forming the generalized inverse of G from B-inverse, IUseBI=4.
 Internal  Forces:  Max     0.023518918 RMS     0.005957394
 Search for a local minimum.
 Step number   1 out of a maximum of  326
 All quantities printed in internal units (Hartrees-Bohrs-Radians)
 Mixed Optimization -- RFO/linear search
 Second derivative matrix not updated -- first step.
 ITU=  0
     Eigenvalues ---    0.00326   0.00326   0.00326   0.00327   0.00327
     Eigenvalues ---    0.00328   0.00328   0.00328   0.00329   0.00329
     Eigenvalues ---    0.00329   0.00329   0.00330   0.00330   0.00332
     Eigenvalues ---    0.00422   0.00424   0.03725   0.03726   0.03726
     Eigenvalues ---    0.03729   0.03732   0.03734   0.03734   0.03741
     Eigenvalues ---    0.03741   0.03745   0.03746   0.03750   0.03750
     Eigenvalues ---    0.03752   0.03761   0.03764   0.04902   0.04903
     Eigenvalues ---    0.04903   0.04904   0.04904   0.04904   0.04905
     Eigenvalues ---    0.04906   0.04907   0.04907   0.04908   0.04909
     Eigenvalues ---    0.04909   0.04909   0.04932   0.04933   0.05673
     Eigenvalues ---    0.05674   0.05780   0.05783   0.07948   0.07950
     Eigenvalues ---    0.07952   0.07958   0.07959   0.07966   0.07968
     Eigenvalues ---    0.07976   0.07979   0.07980   0.07987   0.07991
     Eigenvalues ---    0.07993   0.07995   0.08020   0.08025   0.11918
     Eigenvalues ---    0.11919   0.11921   0.11926   0.11926   0.11932
     Eigenvalues ---    0.11933   0.11939   0.11942   0.11943   0.11948
     Eigenvalues ---    0.11951   0.11952   0.11954   0.11963   0.11968
     Eigenvalues ---    0.16000   0.16000   0.16000   0.16000   0.16000
     Eigenvalues ---    0.16000   0.21954   0.21955   0.21955   0.21956
     Eigenvalues ---    0.21956   0.21957   0.21957   0.21958   0.21958
     Eigenvalues ---    0.21959   0.21959   0.21959   0.21960   0.21960
     Eigenvalues ---    0.21960   0.21961   0.29122   0.29124   0.29128
     Eigenvalues ---    0.29128   0.29131   0.29137   0.29139   0.29140
     Eigenvalues ---    0.29142   0.29142   0.29144   0.29148   0.29149
     Eigenvalues ---    0.29152   0.29168   0.29799   0.29811   0.32331
     Eigenvalues ---    0.32334   0.32334   0.32334   0.32334   0.32334
     Eigenvalues ---    0.32334   0.32334   0.32335   0.32335   0.32335
     Eigenvalues ---    0.32336   0.32336   0.32336   0.32336   0.32337
     Eigenvalues ---    0.32337   0.32338   0.32339   0.32339   0.32339
     Eigenvalues ---    0.32339   0.32339   0.32339   0.32340   0.32341
     Eigenvalues ---    0.32341   0.32341   0.32395   0.32396   0.32398
     Eigenvalues ---    0.32399   0.32502   0.32504   0.32504   0.32506
     Eigenvalues ---    0.32561   0.32563
 RFO step:  Lambda=-3.79736531D-02 EMin= 3.25610432D-03
 Linear search not attempted -- first point.
 Maximum step size (   0.300) exceeded in Quadratic search.
    -- Step size scaled by   0.882
 Iteration  1 RMS(Cart)=  0.16262419 RMS(Int)=  0.00018859
 Iteration  2 RMS(Cart)=  0.00045073 RMS(Int)=  0.00006635
 Iteration  3 RMS(Cart)=  0.00000026 RMS(Int)=  0.00006635
 Variable       Old X    -DE/DX   Delta X   Delta X   Delta X     New X
                                 (Linear)    (Quad)   (Total)
    R1        2.88343   0.02352   0.00000   0.06173   0.06173   2.94516
    R2        2.09829  -0.00691   0.00000  -0.01676  -0.01676   2.08153
    R3        2.09931  -0.00786   0.00000  -0.01909  -0.01909   2.08021
    R4        2.09928  -0.00785   0.00000  -0.01907  -0.01907   2.08021
    R5        2.89687   0.02068   0.00000   0.05537   0.05537   2.95223
    R6        2.10127  -0.00630   0.00000  -0.01535  -0.01535   2.08592
    R7        2.10125  -0.00629   0.00000  -0.01532  -0.01532   2.08592
    R8        2.89712   0.02133   0.00000   0.05713   0.05713   2.95425
    R9        2.10232  -0.00680   0.00000  -0.01660  -0.01660   2.08572
   R10        2.10236  -0.00681   0.00000  -0.01663  -0.01663   2.08573
   R11        2.89745   0.02123   0.00000   0.05688   0.05688   2.95433
   R12        2.10236  -0.00684   0.00000  -0.01669  -0.01669   2.08567
   R13        2.10234  -0.00683   0.00000  -0.01667  -0.01667   2.08567
   R14        2.89703   0.02140   0.00000   0.05731   0.05731   2.95434
   R15        2.10228  -0.00680   0.00000  -0.01660  -0.01660   2.08568
   R16        2.10230  -0.00680   0.00000  -0.01661  -0.01661   2.08569
   R17        2.89736   0.02130   0.00000   0.05705   0.05705   2.95442
   R18        2.10234  -0.00682   0.00000  -0.01665  -0.01665   2.08569
   R19        2.10233  -0.00682   0.00000  -0.01666  -0.01666   2.08567
   R20        2.89693   0.02146   0.00000   0.05746   0.05746   2.95439
   R21        2.10228  -0.00681   0.00000  -0.01661  -0.01661   2.08566
   R22        2.10228  -0.00680   0.00000  -0.01660  -0.01660   2.08568
   R23        2.89730   0.02133   0.00000   0.05714   0.05714   2.95444
   R24        2.10238  -0.00684   0.00000  -0.01669  -0.01669   2.08568
   R25        2.10234  -0.00683   0.00000  -0.01668  -0.01668   2.08567
   R26        2.89695   0.02146   0.00000   0.05745   0.05745   2.95440
   R27        2.10225  -0.00680   0.00000  -0.01660  -0.01660   2.08566
   R28        2.10227  -0.00680   0.00000  -0.01659  -0.01659   2.08568
   R29        2.89717   0.02138   0.00000   0.05726   0.05726   2.95443
   R30        2.10237  -0.00683   0.00000  -0.01668  -0.01668   2.08568
   R31        2.10236  -0.00684   0.00000  -0.01670  -0.01670   2.08567
   R32        2.89714   0.02138   0.00000   0.05727   0.05727   2.95441
   R33        2.10225  -0.00680   0.00000  -0.01659  -0.01659   2.08566
   R34        2.10226  -0.00679   0.00000  -0.01658  -0.01658   2.08568
   R35        2.89708   0.02140   0.00000   0.05732   0.05732   2.95440
   R36        2.10238  -0.00684   0.00000  -0.01669  -0.01669   2.08568
   R37        2.10234  -0.00683   0.00000  -0.01667  -0.01667   2.08567
   R38        2.89737   0.02128   0.00000   0.05701   0.05701   2.95438
   R39        2.10225  -0.00680   0.00000  -0.01659  -0.01659   2.08566
   R40        2.10228  -0.00680   0.00000  -0.01660  -0.01660   2.08568
   R41        2.89708   0.02137   0.00000   0.05722   0.05722   2.95430
   R42        2.10237  -0.00683   0.00000  -0.01668  -0.01668   2.08569
   R43        2.10235  -0.00683   0.00000  -0.01666  -0.01666   2.08568
   R44        2.89749   0.02120   0.00000   0.05681   0.05681   2.95430
   R45        2.10228  -0.00681   0.00000  -0.01662  -0.01662   2.08566
   R46        2.10231  -0.00682   0.00000  -0.01665  -0.01665   2.08566
   R47        2.89654   0.02080   0.00000   0.05566   0.05566   2.95221
   R48        2.10242  -0.00683   0.00000  -0.01669  -0.01669   2.08573
   R49        2.10236  -0.00682   0.00000  -0.01664  -0.01664   2.08572
   R50        2.88366   0.02343   0.00000   0.06152   0.06152   2.94517
   R51        2.10119  -0.00627   0.00000  -0.01528  -0.01528   2.08592
   R52        2.10122  -0.00628   0.00000  -0.01530  -0.01530   2.08591
   R53        2.09932  -0.00786   0.00000  -0.01910  -0.01910   2.08021
   R54        2.09826  -0.00689   0.00000  -0.01672  -0.01672   2.08153
   R55        2.09934  -0.00787   0.00000  -0.01912  -0.01912   2.08022
    A1        1.91265   0.00482   0.00000   0.02315   0.02300   1.93564
    A2        1.92570   0.00209   0.00000   0.00849   0.00841   1.93411
    A3        1.92575   0.00209   0.00000   0.00847   0.00839   1.93415
    A4        1.89671  -0.00307   0.00000  -0.01203  -0.01218   1.88453
    A5        1.89679  -0.00308   0.00000  -0.01209  -0.01223   1.88455
    A6        1.90575  -0.00303   0.00000  -0.01673  -0.01673   1.88902
    A7        1.94010   0.00617   0.00000   0.02586   0.02577   1.96586
    A8        1.89910  -0.00048   0.00000   0.00481   0.00483   1.90393
    A9        1.89930  -0.00050   0.00000   0.00464   0.00467   1.90397
   A10        1.91366  -0.00223   0.00000  -0.00885  -0.00907   1.90460
   A11        1.91364  -0.00222   0.00000  -0.00881  -0.00903   1.90461
   A12        1.89745  -0.00086   0.00000  -0.01842  -0.01855   1.87891
   A13        1.93712   0.00742   0.00000   0.03026   0.03014   1.96726
   A14        1.90704  -0.00183   0.00000  -0.00402  -0.00414   1.90290
   A15        1.90682  -0.00181   0.00000  -0.00382  -0.00394   1.90288
   A16        1.90715  -0.00166   0.00000  -0.00275  -0.00284   1.90431
   A17        1.90689  -0.00165   0.00000  -0.00257  -0.00266   1.90423
   A18        1.89842  -0.00061   0.00000  -0.01804  -0.01810   1.88031
   A19        1.93799   0.00722   0.00000   0.02952   0.02940   1.96740
   A20        1.90651  -0.00166   0.00000  -0.00292  -0.00302   1.90349
   A21        1.90706  -0.00172   0.00000  -0.00340  -0.00350   1.90356
   A22        1.90674  -0.00167   0.00000  -0.00299  -0.00309   1.90366
   A23        1.90690  -0.00166   0.00000  -0.00307  -0.00317   1.90373
   A24        1.89821  -0.00065   0.00000  -0.01810  -0.01816   1.88005
   A25        1.93696   0.00739   0.00000   0.03017   0.03006   1.96701
   A26        1.90734  -0.00175   0.00000  -0.00352  -0.00362   1.90372
   A27        1.90686  -0.00172   0.00000  -0.00310  -0.00321   1.90365
   A28        1.90723  -0.00174   0.00000  -0.00337  -0.00347   1.90376
   A29        1.90663  -0.00169   0.00000  -0.00292  -0.00303   1.90360
   A30        1.89841  -0.00063   0.00000  -0.01820  -0.01827   1.88014
   A31        1.93847   0.00719   0.00000   0.02943   0.02931   1.96778
   A32        1.90622  -0.00162   0.00000  -0.00266  -0.00276   1.90345
   A33        1.90713  -0.00171   0.00000  -0.00342  -0.00352   1.90362
   A34        1.90649  -0.00167   0.00000  -0.00293  -0.00304   1.90345
   A35        1.90691  -0.00167   0.00000  -0.00323  -0.00332   1.90359
   A36        1.89818  -0.00066   0.00000  -0.01815  -0.01822   1.87997
   A37        1.93613   0.00756   0.00000   0.03078   0.03066   1.96679
   A38        1.90763  -0.00181   0.00000  -0.00374  -0.00383   1.90379
   A39        1.90693  -0.00176   0.00000  -0.00316  -0.00328   1.90365
   A40        1.90761  -0.00180   0.00000  -0.00366  -0.00376   1.90385
   A41        1.90665  -0.00173   0.00000  -0.00293  -0.00305   1.90361
   A42        1.89850  -0.00060   0.00000  -0.01822  -0.01829   1.88021
   A43        1.93918   0.00710   0.00000   0.02909   0.02898   1.96816
   A44        1.90590  -0.00158   0.00000  -0.00247  -0.00257   1.90333
   A45        1.90706  -0.00169   0.00000  -0.00339  -0.00348   1.90358
   A46        1.90621  -0.00163   0.00000  -0.00277  -0.00288   1.90333
   A47        1.90689  -0.00166   0.00000  -0.00327  -0.00336   1.90353
   A48        1.89814  -0.00068   0.00000  -0.01817  -0.01823   1.87991
   A49        1.93535   0.00770   0.00000   0.03129   0.03116   1.96652
   A50        1.90780  -0.00184   0.00000  -0.00384  -0.00394   1.90387
   A51        1.90704  -0.00180   0.00000  -0.00325  -0.00337   1.90367
   A52        1.90795  -0.00186   0.00000  -0.00391  -0.00401   1.90393
   A53        1.90677  -0.00176   0.00000  -0.00299  -0.00311   1.90366
   A54        1.89855  -0.00058   0.00000  -0.01821  -0.01828   1.88027
   A55        1.93979   0.00700   0.00000   0.02875   0.02863   1.96842
   A56        1.90577  -0.00156   0.00000  -0.00241  -0.00252   1.90325
   A57        1.90691  -0.00165   0.00000  -0.00330  -0.00339   1.90353
   A58        1.90602  -0.00159   0.00000  -0.00262  -0.00273   1.90329
   A59        1.90677  -0.00164   0.00000  -0.00322  -0.00330   1.90347
   A60        1.89811  -0.00070   0.00000  -0.01819  -0.01825   1.87986
   A61        1.93494   0.00776   0.00000   0.03152   0.03140   1.96634
   A62        1.90779  -0.00184   0.00000  -0.00378  -0.00388   1.90391
   A63        1.90719  -0.00182   0.00000  -0.00333  -0.00345   1.90374
   A64        1.90806  -0.00189   0.00000  -0.00403  -0.00413   1.90393
   A65        1.90693  -0.00178   0.00000  -0.00311  -0.00322   1.90371
   A66        1.89856  -0.00057   0.00000  -0.01819  -0.01827   1.88030
   A67        1.93998   0.00696   0.00000   0.02859   0.02847   1.96845
   A68        1.90587  -0.00156   0.00000  -0.00251  -0.00262   1.90325
   A69        1.90676  -0.00163   0.00000  -0.00320  -0.00329   1.90347
   A70        1.90602  -0.00158   0.00000  -0.00257  -0.00268   1.90334
   A71        1.90664  -0.00162   0.00000  -0.00310  -0.00319   1.90345
   A72        1.89811  -0.00071   0.00000  -0.01819  -0.01825   1.87986
   A73        1.93517   0.00770   0.00000   0.03130   0.03118   1.96635
   A74        1.90754  -0.00181   0.00000  -0.00355  -0.00364   1.90389
   A75        1.90722  -0.00181   0.00000  -0.00331  -0.00343   1.90380
   A76        1.90794  -0.00187   0.00000  -0.00397  -0.00407   1.90387
   A77        1.90708  -0.00178   0.00000  -0.00322  -0.00334   1.90374
   A78        1.89852  -0.00057   0.00000  -0.01817  -0.01825   1.88027
   A79        1.93958   0.00699   0.00000   0.02869   0.02858   1.96817
   A80        1.90616  -0.00159   0.00000  -0.00271  -0.00282   1.90335
   A81        1.90669  -0.00163   0.00000  -0.00312  -0.00321   1.90347
   A82        1.90622  -0.00159   0.00000  -0.00266  -0.00276   1.90346
   A83        1.90659  -0.00162   0.00000  -0.00301  -0.00310   1.90349
   A84        1.89813  -0.00070   0.00000  -0.01818  -0.01823   1.87990
   A85        1.93609   0.00751   0.00000   0.03058   0.03046   1.96655
   A86        1.90719  -0.00173   0.00000  -0.00319  -0.00328   1.90391
   A87        1.90712  -0.00174   0.00000  -0.00313  -0.00324   1.90388
   A88        1.90752  -0.00181   0.00000  -0.00374  -0.00384   1.90368
   A89        1.90706  -0.00175   0.00000  -0.00330  -0.00341   1.90365
   A90        1.89846  -0.00061   0.00000  -0.01814  -0.01821   1.88025
   A91        1.93827   0.00726   0.00000   0.02964   0.02952   1.96779
   A92        1.90674  -0.00161   0.00000  -0.00253  -0.00263   1.90411
   A93        1.90696  -0.00163   0.00000  -0.00271  -0.00280   1.90416
   A94        1.90654  -0.00176   0.00000  -0.00362  -0.00373   1.90280
   A95        1.90668  -0.00177   0.00000  -0.00375  -0.00386   1.90282
   A96        1.89822  -0.00063   0.00000  -0.01798  -0.01805   1.88017
   A97        1.93953   0.00624   0.00000   0.02615   0.02606   1.96558
   A98        1.91367  -0.00222   0.00000  -0.00878  -0.00900   1.90467
   A99        1.91371  -0.00224   0.00000  -0.00882  -0.00905   1.90466
   A100       1.89943  -0.00053   0.00000   0.00452   0.00454   1.90397
   A101       1.89928  -0.00051   0.00000   0.00468   0.00470   1.90398
   A102       1.89765  -0.00085   0.00000  -0.01851  -0.01863   1.87903
   A103       1.92578   0.00207   0.00000   0.00837   0.00830   1.93408
   A104       1.91285   0.00480   0.00000   0.02308   0.02293   1.93577
   A105       1.92573   0.00208   0.00000   0.00842   0.00834   1.93407
   A106       1.89677  -0.00307   0.00000  -0.01204  -0.01218   1.88458
   A107       1.90552  -0.00300   0.00000  -0.01658  -0.01658   1.88894
   A108       1.89671  -0.00306   0.00000  -0.01200  -0.01215   1.88456
    D1        3.14159   0.00000   0.00000   0.00001   0.00001  -3.14159
    D2        1.03249  -0.00079   0.00000  -0.00838  -0.00845   1.02404
    D3       -1.03240   0.00079   0.00000   0.00835   0.00842  -1.02399
    D4        1.05378  -0.00053   0.00000  -0.00496  -0.00500   1.04877
    D5       -1.05532  -0.00133   0.00000  -0.01335  -0.01346  -1.06878
    D6       -3.12022   0.00026   0.00000   0.00338   0.00341  -3.11681
    D7       -1.05365   0.00053   0.00000   0.00490   0.00495  -1.04871
    D8        3.12043  -0.00027   0.00000  -0.00349  -0.00351   3.11692
    D9        1.05554   0.00132   0.00000   0.01325   0.01335   1.06889
   D10       -3.14093  -0.00002   0.00000  -0.00026  -0.00026  -3.14119
   D11        1.03795  -0.00145   0.00000  -0.01335  -0.01335   1.02460
   D12       -1.03709   0.00144   0.00000   0.01318   0.01318  -1.02392
   D13       -1.04042   0.00187   0.00000   0.01648   0.01641  -1.02402
   D14        3.13846   0.00044   0.00000   0.00340   0.00332  -3.14141
   D15        1.06341   0.00333   0.00000   0.02992   0.02985   1.09326
   D16        1.04152  -0.00189   0.00000  -0.01683  -0.01676   1.02476
   D17       -1.06279  -0.00332   0.00000  -0.02992  -0.02984  -1.09263
   D18       -3.13783  -0.00043   0.00000  -0.00339  -0.00332  -3.14115
   D19        3.14115   0.00002   0.00000   0.00031   0.00031   3.14146
   D20        1.03714  -0.00138   0.00000  -0.01274  -0.01274   1.02439
   D21       -1.03748   0.00140   0.00000   0.01296   0.01296  -1.02452
   D22       -1.03780   0.00135   0.00000   0.01265   0.01266  -1.02514
   D23        3.14137  -0.00005   0.00000  -0.00040  -0.00039   3.14098
   D24        1.06675   0.00273   0.00000   0.02530   0.02531   1.09207
   D25        1.03735  -0.00134   0.00000  -0.01239  -0.01240   1.02495
   D26       -1.06666  -0.00275   0.00000  -0.02544  -0.02545  -1.09211
   D27       -3.14128   0.00004   0.00000   0.00026   0.00025  -3.14103
   D28       -3.13991  -0.00006   0.00000  -0.00069  -0.00069  -3.14061
   D29        1.03877  -0.00143   0.00000  -0.01330  -0.01330   1.02547
   D30       -1.03647   0.00139   0.00000   0.01271   0.01272  -1.02375
   D31       -1.03604   0.00136   0.00000   0.01240   0.01240  -1.02364
   D32       -3.14054  -0.00002   0.00000  -0.00021  -0.00021  -3.14075
   D33        1.06740   0.00280   0.00000   0.02580   0.02581   1.09322
   D34        1.03862  -0.00140   0.00000  -0.01315  -0.01315   1.02547
   D35       -1.06588  -0.00278   0.00000  -0.02575  -0.02576  -1.09164
   D36       -3.14112   0.00004   0.00000   0.00026   0.00026  -3.14086
   D37        3.14041   0.00005   0.00000   0.00067   0.00068   3.14109
   D38        1.03661  -0.00137   0.00000  -0.01254  -0.01255   1.02406
   D39       -1.03785   0.00140   0.00000   0.01307   0.01308  -1.02477
   D40       -1.03821   0.00141   0.00000   0.01319   0.01320  -1.02501
   D41        3.14117   0.00000   0.00000  -0.00002  -0.00003   3.14115
   D42        1.06672   0.00277   0.00000   0.02559   0.02560   1.09231
   D43        1.03683  -0.00138   0.00000  -0.01262  -0.01263   1.02420
   D44       -1.06697  -0.00280   0.00000  -0.02584  -0.02585  -1.09282
   D45       -3.14143  -0.00003   0.00000  -0.00023  -0.00023   3.14153
   D46       -3.13883  -0.00009   0.00000  -0.00111  -0.00111  -3.13994
   D47        1.03972  -0.00146   0.00000  -0.01360  -0.01360   1.02612
   D48       -1.03584   0.00139   0.00000   0.01261   0.01261  -1.02322
   D49       -1.03519   0.00135   0.00000   0.01228   0.01228  -1.02291
   D50       -3.13983  -0.00001   0.00000  -0.00021  -0.00021  -3.14004
   D51        1.06780   0.00283   0.00000   0.02599   0.02600   1.09381
   D52        1.03930  -0.00142   0.00000  -0.01339  -0.01339   1.02591
   D53       -1.06534  -0.00279   0.00000  -0.02588  -0.02589  -1.09122
   D54       -3.14089   0.00006   0.00000   0.00033   0.00033  -3.14056
   D55        3.13974   0.00007   0.00000   0.00097   0.00098   3.14072
   D56        1.03604  -0.00135   0.00000  -0.01236  -0.01236   1.02368
   D57       -1.03814   0.00140   0.00000   0.01314   0.01314  -1.02499
   D58       -1.03879   0.00144   0.00000   0.01342   0.01343  -1.02537
   D59        3.14069   0.00001   0.00000   0.00009   0.00008   3.14078
   D60        1.06651   0.00277   0.00000   0.02558   0.02559   1.09210
   D61        1.03659  -0.00139   0.00000  -0.01260  -0.01261   1.02398
   D62       -1.06711  -0.00281   0.00000  -0.02593  -0.02595  -1.09306
   D63       -3.14129  -0.00006   0.00000  -0.00044  -0.00044   3.14145
   D64       -3.13814  -0.00011   0.00000  -0.00136  -0.00137  -3.13951
   D65        1.04037  -0.00147   0.00000  -0.01379  -0.01380   1.02658
   D66       -1.03542   0.00139   0.00000   0.01253   0.01253  -1.02289
   D67       -1.03462   0.00134   0.00000   0.01215   0.01215  -1.02246
   D68       -3.13930  -0.00002   0.00000  -0.00028  -0.00027  -3.13957
   D69        1.06810   0.00284   0.00000   0.02604   0.02605   1.09415
   D70        1.03964  -0.00143   0.00000  -0.01346  -0.01346   1.02618
   D71       -1.06504  -0.00279   0.00000  -0.02588  -0.02589  -1.09093
   D72       -3.14083   0.00007   0.00000   0.00044   0.00044  -3.14039
   D73        3.13955   0.00008   0.00000   0.00106   0.00107   3.14062
   D74        1.03579  -0.00134   0.00000  -0.01227  -0.01228   1.02351
   D75       -1.03819   0.00140   0.00000   0.01315   0.01316  -1.02503
   D76       -1.03904   0.00145   0.00000   0.01354   0.01355  -1.02550
   D77        3.14038   0.00003   0.00000   0.00020   0.00019   3.14058
   D78        1.06640   0.00277   0.00000   0.02562   0.02563   1.09203
   D79        1.03667  -0.00140   0.00000  -0.01267  -0.01267   1.02400
   D80       -1.06709  -0.00282   0.00000  -0.02601  -0.02602  -1.09311
   D81       -3.14107  -0.00008   0.00000  -0.00058  -0.00059   3.14153
   D82       -3.13822  -0.00011   0.00000  -0.00134  -0.00134  -3.13956
   D83        1.04042  -0.00147   0.00000  -0.01380  -0.01381   1.02661
   D84       -1.03546   0.00139   0.00000   0.01251   0.01251  -1.02295
   D85       -1.03461   0.00134   0.00000   0.01213   0.01213  -1.02248
   D86       -3.13915  -0.00003   0.00000  -0.00034  -0.00034  -3.13949
   D87        1.06815   0.00283   0.00000   0.02597   0.02599   1.09413
   D88        1.03943  -0.00142   0.00000  -0.01337  -0.01338   1.02606
   D89       -1.06511  -0.00278   0.00000  -0.02584  -0.02584  -1.09095
   D90       -3.14099   0.00008   0.00000   0.00047   0.00048  -3.14052
   D91        3.13997   0.00007   0.00000   0.00091   0.00091   3.14089
   D92        1.03603  -0.00135   0.00000  -0.01234  -0.01234   1.02369
   D93       -1.03791   0.00139   0.00000   0.01309   0.01310  -1.02481
   D94       -1.03883   0.00146   0.00000   0.01352   0.01353  -1.02530
   D95        3.14042   0.00004   0.00000   0.00028   0.00028   3.14069
   D96        1.06647   0.00278   0.00000   0.02571   0.02571   1.09219
   D97        1.03706  -0.00141   0.00000  -0.01280  -0.01281   1.02426
   D98       -1.06688  -0.00282   0.00000  -0.02604  -0.02606  -1.09293
   D99       -3.14082  -0.00008   0.00000  -0.00062  -0.00062  -3.14144
   D100      -3.13902  -0.00009   0.00000  -0.00106  -0.00106  -3.14008
   D101       1.03979  -0.00145   0.00000  -0.01360  -0.01361   1.02617
   D102      -1.03591   0.00139   0.00000   0.01253   0.01253  -1.02338
   D103      -1.03517   0.00134   0.00000   0.01222   0.01223  -1.02294
   D104      -3.13955  -0.00003   0.00000  -0.00033  -0.00032  -3.13987
   D105       1.06794   0.00281   0.00000   0.02581   0.02582   1.09376
   D106       1.03879  -0.00140   0.00000  -0.01319  -0.01319   1.02560
   D107      -1.06559  -0.00277   0.00000  -0.02573  -0.02574  -1.09133
   D108      -3.14128   0.00007   0.00000   0.00040   0.00040  -3.14088
   D109       3.14074   0.00004   0.00000   0.00058   0.00059   3.14133
   D110       1.03660  -0.00136   0.00000  -0.01249  -0.01250   1.02410
   D111      -1.03750   0.00139   0.00000   0.01299   0.01299  -1.02450
   D112      -1.03830   0.00145   0.00000   0.01338   0.01339  -1.02491
   D113       3.14074   0.00005   0.00000   0.00031   0.00031   3.14105
   D114       1.06664   0.00280   0.00000   0.02579   0.02580   1.09244
   D115       1.03755  -0.00142   0.00000  -0.01295  -0.01296   1.02459
   D116      -1.06659  -0.00282   0.00000  -0.02603  -0.02604  -1.09263
   D117      -3.14069  -0.00007   0.00000  -0.00055  -0.00055  -3.14124
   D118      -3.14013  -0.00005   0.00000  -0.00063  -0.00064  -3.14077
   D119       1.03884  -0.00142   0.00000  -0.01324  -0.01325   1.02559
   D120      -1.03653   0.00138   0.00000   0.01253   0.01254  -1.02400
   D121      -1.03602   0.00135   0.00000   0.01241   0.01242  -1.02361
   D122      -3.14024  -0.00002   0.00000  -0.00019  -0.00019  -3.14044
   D123       1.06757   0.00278   0.00000   0.02558   0.02559   1.09316
   D124       1.03806  -0.00139   0.00000  -0.01297  -0.01298   1.02508
   D125      -1.06616  -0.00275   0.00000  -0.02558  -0.02559  -1.09175
   D126      -3.14153   0.00004   0.00000   0.00019   0.00019  -3.14134
   D127       3.14140   0.00001   0.00000   0.00023   0.00023  -3.14155
   D128       1.03732  -0.00134   0.00000  -0.01236  -0.01237   1.02495
   D129      -1.03739   0.00135   0.00000   0.01256   0.01257  -1.02482
   D130      -1.03776   0.00143   0.00000   0.01317   0.01317  -1.02459
   D131       3.14135   0.00008   0.00000   0.00057   0.00056  -3.14127
   D132       1.06664   0.00276   0.00000   0.02549   0.02551   1.09214
   D133       1.03777  -0.00142   0.00000  -0.01303  -0.01304   1.02473
   D134      -1.06631  -0.00277   0.00000  -0.02562  -0.02564  -1.09195
   D135      -3.14102  -0.00009   0.00000  -0.00071  -0.00070   3.14147
   D136      -3.14104  -0.00002   0.00000  -0.00024  -0.00024  -3.14128
   D137       1.04158  -0.00189   0.00000  -0.01685  -0.01678   1.02481
   D138      -1.04065   0.00187   0.00000   0.01654   0.01646  -1.02418
   D139      -1.03684   0.00142   0.00000   0.01299   0.01299  -1.02385
   D140      -3.13740  -0.00045   0.00000  -0.00362  -0.00355  -3.14095
   D141       1.06355   0.00331   0.00000   0.02977   0.02969   1.09324
   D142       1.03758  -0.00143   0.00000  -0.01317  -0.01317   1.02440
   D143      -1.06298  -0.00330   0.00000  -0.02979  -0.02971  -1.09270
   D144       3.13797   0.00046   0.00000   0.00361   0.00353   3.14150
   D145      -1.05348   0.00052   0.00000   0.00486   0.00490  -1.04858
   D146      -3.14154   0.00000   0.00000   0.00000   0.00000  -3.14154
   D147       1.05369  -0.00053   0.00000  -0.00493  -0.00496   1.04873
   D148       1.05548   0.00133   0.00000   0.01333   0.01344   1.06891
   D149      -1.03258   0.00081   0.00000   0.00847   0.00854  -1.02404
   D150      -3.12053   0.00028   0.00000   0.00354   0.00357  -3.11697
   D151       3.12079  -0.00029   0.00000  -0.00364  -0.00367   3.11712
   D152       1.03273  -0.00081   0.00000  -0.00850  -0.00857   1.02416
   D153      -1.05522  -0.00134   0.00000  -0.01343  -0.01354  -1.06876
         Item               Value     Threshold  Converged?
 Maximum Force            0.023519     0.000015     NO 
 RMS     Force            0.005957     0.000010     NO 
 Maximum Displacement     0.438440     0.000060     NO 
 RMS     Displacement     0.162836     0.000040     NO 
 Predicted change in Energy=-2.104770D-02
 GradGradGradGradGradGradGradGradGradGradGradGradGradGradGradGradGradGrad

 Stoichiometry    C18H38
 Framework group  C1[X(C18H38)]
 Deg. of freedom   162
 Full point group                 C1      NOp   1
 Largest Abelian subgroup         C1      NOp   1
 Largest concise Abelian subgroup C1      NOp   1
                         Standard orientation:                         
 ---------------------------------------------------------------------
 Center     Atomic      Atomic             Coordinates (Angstroms)
 Number     Number       Type             X           Y           Z
 ---------------------------------------------------------------------
      1          6           0      -11.061272    0.331965   -0.017842
      2          6           0       -9.755411   -0.518695   -0.010209
      3          6           0       -8.464583    0.361304   -0.007894
      4          6           0       -7.153500   -0.490160   -0.000816
      5          6           0       -5.861631    0.390280    0.001304
      6          6           0       -4.550831   -0.461717    0.006958
      7          6           0       -3.258247    0.417757    0.008356
      8          6           0       -1.948264   -0.435552    0.011626
      9          6           0       -0.654469    0.442164    0.011773
     10          6           0        0.654122   -0.413300    0.012034
     11          6           0        1.949582    0.461946    0.010782
     12          6           0        3.256388   -0.396248    0.008120
     13          6           0        4.553682    0.476243    0.005844
     14          6           0        5.858664   -0.384680    0.001009
     15          6           0        7.157493    0.485431   -0.001655
     16          6           0        8.461045   -0.377574   -0.007680
     17          6           0        9.760034    0.490306   -0.010291
     18          6           0       11.057650   -0.372900   -0.016747
     19          1           0      -11.952232   -0.315714   -0.019311
     20          1           0      -11.105560    0.972675   -0.911875
     21          1           0      -11.112456    0.978156    0.871863
     22          1           0       -9.745552   -1.172851   -0.899254
[...]
 ! D85   D(38,10,11,12)        -58.5211         -DE/DX =    0.0                 !
 ! D86   D(38,10,11,40)       -179.9994         -DE/DX =    0.0                 !
 ! D87   D(38,10,11,41)         62.9573         -DE/DX =    0.0                 !
 ! D88   D(39,10,11,12)         58.5211         -DE/DX =    0.0                 !
 ! D89   D(39,10,11,40)        -62.9573         -DE/DX =    0.0                 !
 ! D90   D(39,10,11,41)        179.9995         -DE/DX =    0.0                 !
 ! D91   D(10,11,12,13)        180.0            -DE/DX =    0.0                 !
 ! D92   D(10,11,12,42)         58.5198         -DE/DX =    0.0                 !
 ! D93   D(10,11,12,43)        -58.5197         -DE/DX =    0.0                 !
 ! D94   D(40,11,12,13)        -58.5204         -DE/DX =    0.0                 !
 ! D95   D(40,11,12,42)        179.9994         -DE/DX =    0.0                 !
 ! D96   D(40,11,12,43)         62.9599         -DE/DX =    0.0                 !
 ! D97   D(41,11,12,13)         58.5204         -DE/DX =    0.0                 !
 ! D98   D(41,11,12,42)        -62.9598         -DE/DX =    0.0                 !
 ! D99   D(41,11,12,43)       -179.9993         -DE/DX =    0.0                 !
 ! D100  D(11,12,13,14)        180.0            -DE/DX =    0.0                 !
 ! D101  D(11,12,13,44)         58.5223         -DE/DX =    0.0                 !
 ! D102  D(11,12,13,45)        -58.5223         -DE/DX =    0.0                 !
 ! D103  D(42,12,13,14)        -58.5206         -DE/DX =    0.0                 !
 ! D104  D(42,12,13,44)       -179.9983         -DE/DX =    0.0                 !
 ! D105  D(42,12,13,45)         62.9571         -DE/DX =    0.0                 !
 ! D106  D(43,12,13,14)         58.5206         -DE/DX =    0.0                 !
 ! D107  D(43,12,13,44)        -62.957          -DE/DX =    0.0                 !
 ! D108  D(43,12,13,45)        179.9983         -DE/DX =    0.0                 !
 ! D109  D(12,13,14,15)        180.0            -DE/DX =    0.0                 !
 ! D110  D(12,13,14,46)         58.5196         -DE/DX =    0.0                 !
 ! D111  D(12,13,14,47)        -58.5196         -DE/DX =    0.0                 !
 ! D112  D(44,13,14,15)        -58.5208         -DE/DX =    0.0                 !
 ! D113  D(44,13,14,46)        179.9987         -DE/DX =    0.0                 !
 ! D114  D(44,13,14,47)         62.9596         -DE/DX =    0.0                 !
 ! D115  D(45,13,14,15)         58.5209         -DE/DX =    0.0                 !
 ! D116  D(45,13,14,46)        -62.9596         -DE/DX =    0.0                 !
 ! D117  D(45,13,14,47)       -179.9987         -DE/DX =    0.0                 !
 ! D118  D(13,14,15,16)        180.0            -DE/DX =    0.0                 !
 ! D119  D(13,14,15,48)         58.522          -DE/DX =    0.0                 !
 ! D120  D(13,14,15,49)        -58.5219         -DE/DX =    0.0                 !
 ! D121  D(46,14,15,16)        -58.5199         -DE/DX =    0.0                 !
 ! D122  D(46,14,15,48)       -179.998          -DE/DX =    0.0                 !
 ! D123  D(46,14,15,49)         62.9581         -DE/DX =    0.0                 !
 ! D124  D(47,14,15,16)         58.5199         -DE/DX =    0.0                 !
 ! D125  D(47,14,15,48)        -62.9581         -DE/DX =    0.0                 !
 ! D126  D(47,14,15,49)        179.998          -DE/DX =    0.0                 !
 ! D127  D(14,15,16,17)        180.0            -DE/DX =    0.0                 !
 ! D128  D(14,15,16,50)         58.5312         -DE/DX =    0.0                 !
 ! D129  D(14,15,16,51)        -58.5312         -DE/DX =    0.0                 !
 ! D130  D(48,15,16,17)        -58.5194         -DE/DX =    0.0                 !
 ! D131  D(48,15,16,50)       -179.9882         -DE/DX =    0.0                 !
 ! D132  D(48,15,16,51)         62.9495         -DE/DX =    0.0                 !
 ! D133  D(49,15,16,17)         58.5194         -DE/DX =    0.0                 !
 ! D134  D(49,15,16,50)        -62.9495         -DE/DX =    0.0                 !
 ! D135  D(49,15,16,51)        179.9882         -DE/DX =    0.0                 !
 ! D136  D(15,16,17,18)        180.0            -DE/DX =    0.0                 !
 ! D137  D(15,16,17,52)         58.4691         -DE/DX =    0.0                 !
 ! D138  D(15,16,17,53)        -58.4691         -DE/DX =    0.0                 !
 ! D139  D(50,16,17,18)        -58.5022         -DE/DX =    0.0                 !
 ! D140  D(50,16,17,52)        179.9669         -DE/DX =    0.0                 !
 ! D141  D(50,16,17,53)         63.0287         -DE/DX =    0.0                 !
 ! D142  D(51,16,17,18)         58.5022         -DE/DX =    0.0                 !
 ! D143  D(51,16,17,52)        -63.0287         -DE/DX =    0.0                 !
 ! D144  D(51,16,17,53)       -179.9669         -DE/DX =    0.0                 !
 ! D145  D(16,17,18,54)        -59.9741         -DE/DX =    0.0                 !
 ! D146  D(16,17,18,55)        180.0            -DE/DX =    0.0                 !
 ! D147  D(16,17,18,56)         59.9741         -DE/DX =    0.0                 !
 ! D148  D(52,17,18,54)         61.4788         -DE/DX =    0.0                 !
 ! D149  D(52,17,18,55)        -58.5471         -DE/DX =    0.0                 !
 ! D150  D(52,17,18,56)       -178.573          -DE/DX =    0.0                 !
 ! D151  D(53,17,18,54)        178.573          -DE/DX =    0.0                 !
 ! D152  D(53,17,18,55)         58.5471         -DE/DX =    0.0                 !
 ! D153  D(53,17,18,56)        -61.4788         -DE/DX =    0.0                 !
 --------------------------------------------------------------------------------
 GradGradGradGradGradGradGradGradGradGradGradGradGradGradGradGradGradGrad

 Stoichiometry    C18H38
 Framework group  C1[X(C18H38)]
 Deg. of freedom   162
 Full point group                 C1      NOp   1
 Largest Abelian subgroup         C1      NOp   1
 Largest concise Abelian subgroup C1      NOp   1
                         Standard orientation:                         
 ---------------------------------------------------------------------
 Center     Atomic      Atomic             Coordinates (Angstroms)
 Number     Number       Type             X           Y           Z
 ---------------------------------------------------------------------
      1          6           0      -11.019594    0.350298    0.000000
      2          6           0       -9.720665   -0.506338    0.000001
      3          6           0       -8.430262    0.371785    0.000000
      4          6           0       -7.127534   -0.487762    0.000001
      5          6           0       -5.837441    0.390797    0.000000
      6          6           0       -4.534501   -0.468664    0.000000
      7          6           0       -3.244509    0.410106   -0.000001
      8          6           0       -1.941469   -0.449211    0.000000
      9          6           0       -0.651536    0.429649   -0.000001
     10          6           0        0.651536   -0.429622   -0.000001
     11          6           0        1.941471    0.449236   -0.000001
     12          6           0        3.244507   -0.410086   -0.000001
     13          6           0        4.534503    0.468678    0.000000
     14          6           0        5.837438   -0.390791    0.000000
     15          6           0        7.127538    0.487759    0.000001
     16          6           0        8.430258   -0.371800    0.000000
     17          6           0        9.720670    0.506311    0.000001
     18          6           0       11.019590   -0.350340    0.000000
     19          1           0      -11.910521   -0.296450    0.000000
     20          1           0      -11.060332    0.994514   -0.891708
     21          1           0      -11.060333    0.994514    0.891709
     22          1           0       -9.714419   -1.161560   -0.888617
     23          1           0       -9.714419   -1.161559    0.888621
     24          1           0       -8.435495    1.026913    0.888716
     25          1           0       -8.435495    1.026911   -0.888718
     26          1           0       -7.122793   -1.142882   -0.888736
     27          1           0       -7.122793   -1.142880    0.888739
     28          1           0       -5.842264    1.045910    0.888732
     29          1           0       -5.842265    1.045908   -0.888734
     30          1           0       -4.529650   -1.123767   -0.888740
     31          1           0       -4.529650   -1.123766    0.888741
     32          1           0       -3.249408    1.065216    0.888734
     33          1           0       -3.249408    1.065215   -0.888736
     34          1           0       -1.936555   -1.104317   -0.888738
     35          1           0       -1.936555   -1.104316    0.888738
     36          1           0       -0.656465    1.084757    0.888735
     37          1           0       -0.656465    1.084756   -0.888737
     38          1           0        0.656464   -1.084729   -0.888737
     39          1           0        0.656464   -1.084729    0.888735
     40          1           0        1.936558    1.104341    0.888738
     41          1           0        1.936558    1.104342   -0.888738
     42          1           0        3.249404   -1.065194   -0.888736
     43          1           0        3.249403   -1.065195    0.888734
     44          1           0        4.529656    1.123780    0.888741
     45          1           0        4.529656    1.123782   -0.888740
     46          1           0        5.842257   -1.045902   -0.888734
     47          1           0        5.842257   -1.045903    0.888732
     48          1           0        7.122802    1.142877    0.888739
     49          1           0        7.122802    1.142878   -0.888736
     50          1           0        8.435485   -1.026926   -0.888718
     51          1           0        8.435485   -1.026928    0.888716
     52          1           0        9.714431    1.161531    0.888621
     53          1           0        9.714431    1.161533   -0.888617
     54          1           0       11.060321   -0.994557    0.891708
     55          1           0       11.910524    0.296399    0.000001
     56          1           0       11.060321   -0.994555   -0.891709
 ---------------------------------------------------------------------
 Rotational constants (GHZ):      4.5162792      0.0430808      0.0428814

 **********************************************************************

            Population analysis using the SCF density.

 **********************************************************************

 Orbital symmetries:
       Occupied  (A) (A) (A) (A) (A) (A) (A) (A) (A) (A) (A) (A)
                 (A) (A) (A) (A) (A) (A) (A) (A) (A) (A) (A) (A)
                 (A) (A) (A) (A) (A) (A) (A) (A) (A) (A) (A) (A)
                 (A) (A) (A) (A) (A) (A) (A) (A) (A) (A) (A) (A)
                 (A) (A) (A) (A) (A) (A) (A) (A) (A) (A) (A) (A)
                 (A) (A) (A) (A) (A) (A) (A) (A) (A) (A) (A) (A)
                 (A)
       Virtual   (A) (A) (A) (A) (A) (A) (A) (A) (A) (A) (A) (A)
                 (A) (A) (A) (A) (A) (A) (A) (A) (A) (A) (A) (A)
                 (A) (A) (A) (A) (A) (A) (A) (A) (A) (A) (A) (A)
                 (A) (A) (A) (A) (A) (A) (A) (A) (A) (A) (A) (A)
                 (A) (A) (A) (A) (A) (A) (A)
 The electronic state is 1-A.
 Alpha  occ. eigenvalues --  -10.00709 -10.00709 -10.00452 -10.00450 -10.00438
 Alpha  occ. eigenvalues --  -10.00425 -10.00409 -10.00391 -10.00372 -10.00352
 Alpha  occ. eigenvalues --  -10.00332 -10.00312 -10.00292 -10.00274 -10.00258
 Alpha  occ. eigenvalues --  -10.00244  -9.99959  -9.99959  -0.76612  -0.76113
 Alpha  occ. eigenvalues --   -0.75266  -0.74079  -0.72563  -0.70736  -0.68621
 Alpha  occ. eigenvalues --   -0.66253  -0.63685  -0.61003  -0.58360  -0.56016
 Alpha  occ. eigenvalues --   -0.54382  -0.54288  -0.53958  -0.53729  -0.53309
 Alpha  occ. eigenvalues --   -0.53279  -0.44795  -0.44322  -0.43531  -0.42445
 Alpha  occ. eigenvalues --   -0.41101  -0.39548  -0.38822  -0.38630  -0.37849
 Alpha  occ. eigenvalues --   -0.37818  -0.36846  -0.36598  -0.36086  -0.35180
 Alpha  occ. eigenvalues --   -0.34348  -0.34164  -0.33558  -0.32731  -0.32000
 Alpha  occ. eigenvalues --   -0.31320  -0.31073  -0.30597  -0.30174  -0.29514
 Alpha  occ. eigenvalues --   -0.29323  -0.28758  -0.28658  -0.28437  -0.28296
 Alpha  occ. eigenvalues --   -0.28248  -0.28246  -0.28093  -0.27834  -0.27701
 Alpha  occ. eigenvalues --   -0.27494  -0.25097  -0.23185
 Alpha virt. eigenvalues --    0.30117   0.32228   0.35271   0.35439   0.35999
 Alpha virt. eigenvalues --    0.36912   0.38123   0.38265   0.38306   0.38407
 Alpha virt. eigenvalues --    0.38670   0.38820   0.39483   0.39558   0.40599
 Alpha virt. eigenvalues --    0.41138   0.41958   0.42293   0.42780   0.43819
 Alpha virt. eigenvalues --    0.44416   0.45301   0.45713   0.45996   0.47082
 Alpha virt. eigenvalues --    0.47492   0.47542   0.47570   0.47655   0.47982
 Alpha virt. eigenvalues --    0.48075   0.48650   0.48767   0.48910   0.48975
 Alpha virt. eigenvalues --    0.49632   0.49818   0.49866   0.50268   0.50281
 Alpha virt. eigenvalues --    0.50523   0.50809   0.50903   0.51390   0.51426
 Alpha virt. eigenvalues --    0.51581   0.52132   0.52281   0.52754   0.52808
 Alpha virt. eigenvalues --    0.52842   0.54013   0.55032   0.55831   0.56348
          Condensed to atoms (all electrons):
 Mulliken charges:
               1
     1  C   -0.218025
     2  C   -0.127654
     3  C   -0.129461
     4  C   -0.129928
     5  C   -0.129802
     6  C   -0.129815
     7  C   -0.129813
     8  C   -0.129815
     9  C   -0.129814
    10  C   -0.129815
    11  C   -0.129815
    12  C   -0.129813
    13  C   -0.129815
    14  C   -0.129802
    15  C   -0.129927
    16  C   -0.129461
    17  C   -0.127654
    18  C   -0.218025
    19  H    0.071334
    20  H    0.070420
    21  H    0.070420
    22  H    0.066432
    23  H    0.066432
    24  H    0.065013
    25  H    0.065013
    26  H    0.064912
    27  H    0.064912
    28  H    0.064944
    29  H    0.064944
    30  H    0.064923
    31  H    0.064923
    32  H    0.064920
    33  H    0.064920
    34  H    0.064917
    35  H    0.064917
    36  H    0.064915
    37  H    0.064915
    38  H    0.064916
    39  H    0.064916
    40  H    0.064917
    41  H    0.064917
    42  H    0.064920
    43  H    0.064920
    44  H    0.064923
    45  H    0.064923
    46  H    0.064944
    47  H    0.064944
    48  H    0.064912
    49  H    0.064912
    50  H    0.065013
    51  H    0.065013
    52  H    0.066432
    53  H    0.066432
    54  H    0.070420
    55  H    0.071334
    56  H    0.070420
 Sum of Mulliken charges =   0.00000
 Mulliken charges with hydrogens summed into heavy atoms:
               1
     1  C   -0.005851
     2  C    0.005210
     3  C    0.000566
     4  C   -0.000103
     5  C    0.000085
     6  C    0.000031
     7  C    0.000027
     8  C    0.000018
     9  C    0.000017
    10  C    0.000016
    11  C    0.000018
    12  C    0.000027
    13  C    0.000031
    14  C    0.000085
    15  C   -0.000103
    16  C    0.000566
    17  C    0.005210
    18  C   -0.005851
 Electronic spatial extent (au):  <R**2>=          24866.5379
 Charge=              0.0000 electrons
 Dipole moment (field-independent basis, Debye):
    X=              0.0000    Y=              0.0000    Z=              0.0000  Tot=              0.0000
 Quadrupole moment (field-independent basis, Debye-Ang):
   XX=           -115.2004   YY=           -113.1381   ZZ=           -111.2666
   XY=              0.3510   XZ=              0.0000   YZ=              0.0000
 Traceless Quadrupole moment (field-independent basis, Debye-Ang):
   XX=             -1.9987   YY=              0.0636   ZZ=              1.9350
   XY=              0.3510   XZ=              0.0000   YZ=              0.0000
 Octapole moment (field-independent basis, Debye-Ang**2):
  XXX=              0.0001  YYY=              0.0000  ZZZ=              0.0000  XYY=              0.0000
  XXY=              0.0000  XXZ=              0.0000  XZZ=              0.0000  YZZ=              0.0000
  YYZ=              0.0000  XYZ=              0.0000
 Hexadecapole moment (field-independent basis, Debye-Ang**3):
 XXXX=         -32195.4562 YYYY=           -387.0685 ZZZZ=           -214.5250 XXXY=             99.8565
 XXXZ=              0.0000 YYYX=              0.5609 YYYZ=              0.0000 ZZZX=              0.0000
 ZZZY=              0.0000 XXYY=          -5348.3613 XXZZ=          -5250.3149 YYZZ=            -86.5695
 XXYZ=              0.0000 YYXZ=              0.0000 ZZXY=             -6.8968
 N-N= 1.162892761305D+03 E-N=-3.941888757041D+03  KE= 6.877708360787D+02
 1\1\GINC-PC-AVL46\FOpt\RB3LYP\STO-3G\C18H38\BING\28-Jan-2019\0\\# opt(
 tight) b3lyp/sto-3g\\c18h38\\0,1\C,-0.0916695666,-0.9836132631,-2.6421
 593387\C,0.3236753824,-2.3592943497,-2.0454735886\C,1.6077078429,-2.26
 06989866,-1.1635544161\C,2.0240629406,-3.640746873,-0.5651915363\C,3.3
 081126848,-3.5416274902,0.316623736\C,3.7246500791,-4.9217081774,0.915
 1217911\C,5.0087397895,-4.8223593107,1.7969147467\C,5.425414491,-6.202
 3682981,2.3954932933\C,6.7095113642,-6.1029142155,3.2772686263\C,7.126
 2305114,-7.4828992003,3.875872929\C,8.4103269227,-7.3834475559,4.75764
 92268\C,8.8269978293,-8.7634588129,5.3562251391\C,10.1110862774,-8.664
 117051,6.2380207868\C,10.5276165114,-10.0442020878,6.8365137033\C,11.8
 116644962,-9.9450939176,7.7183328981\C,12.2280097165,-11.3251479173,8.
 3166883979\C,13.512040305,-11.2265672467,9.1986120587\C,13.927373097,-
 12.6022558385,9.7952889664\H,-0.9985923088,-1.0859798232,-3.2578269075
 \H,0.7114551349,-0.5760866262,-3.2751924643\H,-0.2986106092,-0.2585833
 692,-1.8400837504\H,0.5008261024,-3.0758456876,-2.8665517333\H,-0.5057
 382158,-2.7594417097,-1.4364147255\H,1.4311144312,-1.5447165216,-0.341
 8364171\H,2.4377897182,-1.8611555003,-1.7721311725\H,2.2003509641,-4.3
 564799176,-1.3872046406\H,1.1936529446,-4.0400338181,0.0431225248\H,3.
 1317694607,-2.8258599893,1.138585564\H,4.1384629985,-3.1423043738,-0.2
 917352799\H,3.9010198943,-5.6374828633,0.0931712936\H,2.8943180534,-5.
 3210361253,1.5235034721\H,4.8323448887,-4.1065563166,2.6188351899\H,5.
 8390410746,-4.4230010052,1.1885110893\H,5.6018233364,-6.9181765818,1.5
 73580377\H,4.5951237654,-6.6017312119,3.0039084569\H,6.53309496,-5.387
 0972033,4.0991723669\H,7.5397927458,-5.7035417491,2.6688469384\H,7.302
 6469201,-8.1987158297,3.0539688709\H,6.2959486357,-7.8822715746,4.4842
 940041\H,8.2339185858,-6.6676404036,5.5795632505\H,9.2406188253,-6.984
 0849761,4.149235452\H,9.0033921625,-9.479259957,4.5343029781\H,7.99669
 44617,-9.1628165938,5.9646262996\H,9.9347174989,-7.9483449401,7.059973
 7589\H,10.9414209681,-8.2647897937,5.6296422909\H,10.7039584758,-10.75
 99664241,6.0145488643\H,9.6972628371,-10.4435243031,7.4448687277\H,11.
 6353781257,-9.2293646871,8.5403496838\H,12.6420782836,-9.5458079486,7.
 1100233749\H,12.4046009914,-12.0411261659,7.4949662806\H,11.3979235973
 ,-11.7246901437,8.9252602026\H,13.334892169,-10.5100204691,10.01969473
 53\H,14.341458551,-10.8264214709,8.5895584881\H,13.1242436973,-13.0097
 804348,10.4283174556\H,14.8342954212,-12.4999012974,10.4109591533\H,14
 .1343097779,-13.3272816015,8.9932085271\\Version=ES64L-G09RevD.01\Stat
 e=1-A\HF=-700.456575\RMSD=6.607e-09\RMSF=6.799e-08\Dipole=-0.0000003,-
 0.0000005,0.\Quadrupole=0.0131051,-0.5135365,0.5004315,0.4383025,-1.10
 03116,0.7403911\PG=C01 [X(C18H38)]\\@


 TIME GOES, YOU SAY?  AH NO!
 ALAS, TIME STAYS, WE GO.
    -- A. DOBSON (1840-1921)
 Job cpu time:       0 days  0 hours  5 minutes 43.2 seconds.
 File lengths (MBytes):  RWF=     18 Int=      0 D2E=      0 Chk=      5 Scr=      1
 Normal termination of Gaussian 09 at Mon Jan 28 19:30:18 2019.
