
                                 *****************
                                 * O   R   C   A *
                                 *****************

           --- An Ab Initio, DFT and Semiempirical electronic structure package ---

                  #######################################################
                  #                        -***-                        #
                  #  Department of molecular theory and spectroscopy    #
                  #              Directorship: Frank Neese              #
                  # Max Planck Institute for Chemical Energy Conversion #
                  #                  D-45470 Muelheim/Ruhr              #
                  #                       Germany                       #
                  #                                                     #
                  #                  All rights reserved                #
                  #                        -***-                        #
                  #######################################################


                         Program Version 4.0.1 -  RELEASE  -


 With contributions from (in alphabetic order):
   Daniel Aravena         : Magnetic Properties
   Michael Atanasov       : Ab Initio Ligand Field Theory
   Ute Becker             : Parallelization
   Martin Brehm           : Molecular dynamics
   Dmytro Bykov           : SCF Hessian
   Vijay G. Chilkuri      : MRCI spin determinant printing
   Dipayan Datta          : RHF DLPNO-CCSD density
   Achintya Kumar Dutta   : EOM-CC, STEOM-CC
   Dmitry Ganyushin       : Spin-Orbit,Spin-Spin,Magnetic field MRCI
   Yang Guo               : DLPNO-NEVPT2, CIM, IAO-localization
   Andreas Hansen         : Spin unrestricted coupled pair/coupled cluster methods
   Lee Huntington         : MR-EOM, pCC
   Robert Izsak           : Overlap fitted RIJCOSX, COSX-SCS-MP3, EOM
   Christian Kollmar      : KDIIS, OOCD, Brueckner-CCSD(T), CCSD density
   Simone Kossmann        : Meta GGA functionals, TD-DFT gradient, OOMP2, MP2 Hessian
   Martin Krupicka        : AUTO-CI
   Dagmar Lenk            : GEPOL surface
   Dimitrios Liakos       : Extrapolation schemes; parallel MDCI
   Dimitrios Manganas     : ROCIS; embedding schemes
   Dimitrios Pantazis     : SARC Basis sets
   Taras Petrenko         : DFT Hessian,TD-DFT gradient, ASA, ECA, R-Raman, ABS, FL, XAS/XES, NRVS
   Peter Pinski           : DLPNO-MP2
   Christoph Reimann      : Effective Core Potentials
   Marius Retegan         : Local ZFS, SOC
   Christoph Riplinger    : Optimizer, TS searches, QM/MM, DLPNO-CCSD(T), (RO)-DLPNO pert. Triples
   Tobias Risthaus        : Range-separated hybrids, TD-DFT gradient, RPA, STAB
   Michael Roemelt        : Restricted open shell CIS
   Masaaki Saitow         : Open-shell DLPNO
   Barbara Sandhoefer     : DKH picture change effects
   Kantharuban Sivalingam : CASSCF convergence, NEVPT2, FIC-MRCI
   Georgi Stoychev        : AutoAux
   Boris Wezisla          : Elementary symmetry handling
   Frank Wennmohs         : Technical directorship


 We gratefully acknowledge several colleagues who have allowed us to
 interface, adapt or use parts of their codes:
   Stefan Grimme, W. Hujo, H. Kruse,             : VdW corrections, initial TS optimization,
                  C. Bannwarth                     DFT functionals, gCP, sTDA/sTD-DF
   Ed Valeev                                     : LibInt (2-el integral package), F12 methods
   Garnet Chan, S. Sharma, J. Yang, R. Olivares  : DMRG
   Ulf Ekstrom                                   : XCFun DFT Library
   Mihaly Kallay                                 : mrcc  (arbitrary order and MRCC methods)
   Andreas Klamt, Michael Diedenhofen            : otool_cosmo (COSMO solvation model)
   Jiri Pittner, Ondrej Demel                    : Mk-CCSD
   Frank Weinhold                                : gennbo (NPA and NBO analysis)
   Christopher J. Cramer and Donald G. Truhlar   : smd solvation model


 Your calculation uses the libint2 library for the computation of 2-el integrals
 For citations please refer to: http://libint.valeyev.net

 This ORCA versions uses:
   CBLAS   interface :  Fast vector & matrix operations
   LAPACKE interface :  Fast linear algebra routines
   SCALAPACK package :  Parallel linear algebra routines


Your calculation utilizes the basis: cc-pVDZ 
       H, B-Ne : Obtained from the ccRepo (grant-hill.group.shef.ac.uk/ccrepo) Feb. 2017
                 T. H. Dunning, Jr., J. Chem. Phys. 90, 1007 (1989)
            He : Obtained from the ccRepo (grant-hill.group.shef.ac.uk/ccrepo) Feb. 2017
                 D. E. Woon, T. H. Dunning, Jr., J. Chem. Phys. 100, 2975 (1994)
  Li-Be, Na-Mg : Obtained from the ccRepo (grant-hill.group.shef.ac.uk/ccrepo) Feb. 2017
                 B. P. Prascher, D. E. Woon, K. A. Peterson, T. H. Dunning, Jr., A. K. Wilson, Theor. Chem. Acc. 128, 69 (2011)
         Al-Ar : Obtained from the ccRepo (grant-hill.group.shef.ac.uk/ccrepo) Feb. 2017
                 D. E. Woon, T. H. Dunning, Jr., J. Chem. Phys. 98, 1358 (1993)
            Ca : Obtained from the Peterson Research Group Website (tyr0.chem.wsu.edu/~kipeters) Feb. 2017
                 J. Koput, K. A. Peterson, J. Phys. Chem. 106, 9595 (2002)
         Sc-Zn : Obtained from the ccRepo (grant-hill.group.shef.ac.uk/ccrepo) Feb. 2017
                 N. B. Balabanov, K. A. Peterson, J. Chem. Phys. 123, 064107 (2005)
                 N. B. Balabanov, K. A. Peterson, J. Chem. Phys. 125, 074110 (2006)
         Ga-Kr : Obtained from the ccRepo (grant-hill.group.shef.ac.uk/ccrepo) Feb. 2017
                 A. K. Wilson, D. E. Woon, K. A. Peterson, T. H. Dunning, Jr., J. Chem. Phys. 110, 7667 (1999)

Your calculation utilizes the auxiliary basis: def2/J
   F. Weigend, Phys. Chem. Chem. Phys. 8, 1057 (2006).

================================================================================
                                        WARNINGS
                       Please study these warnings very carefully!
================================================================================

Warning: TCutStore was < 0. Adjusted to Thresh (uncritical)

WARNING: Geometry Optimization
  ===> : Switching off AutoStart
         For restart on a previous wavefunction, please use MOREAD

INFO   : the flag for use of LIBINT has been found!

================================================================================
                                       INPUT FILE
================================================================================
NAME = frag_11_c00001.com
|  1> %pal nprocs 2 end
|  2> %maxcore 1000
|  3> ! b3lyp TIGHTSCF
|  4> ! cc-pvdz def2/J RIJCOSX
|  5> ! Opt
|  6> 
|  7> %geom
|  8> maxiter 60
|  9> TolE 1e-4
| 10> TolRMSG 2e-3
| 11> TolMaxG 3e-3
| 12> TolRMSD 2e-2
| 13> TolMaxD 3e-2
| 14> end
| 15> 
| 16> *xyz 0 1
| 17> C 0.7348 1.4131 -0.1232
| 18> C 1.5655 -1.4699 0.1998
| 19> C 0.3546 -0.9593 0.4602
| 20> C -0.0689 0.4293 0.3186
| 21> C -1.4934 0.7382 0.7283
| 22> C -2.5706 0.0905 -0.1281
| 23> O -2.3915 -0.7083 -1.0412
| 24> H 0.3842 2.4373 -0.2072
| 25> H 1.7474 -2.5322 0.3311
| 26> H -0.4132 -1.658 0.7939
| 27> H -1.6593 0.4184 1.7643
| 28> H -1.6829 1.8183 0.6963
| 29> H -3.5998 0.3854 0.1445
| 30> H 1.7622 1.2427 -0.4249
| 31> H 2.3998 -0.8746 -0.1504
| 32> *
| 33> 
| 34> 
| 35>                          ****END OF INPUT****
================================================================================

                       *****************************
                       * Geometry Optimization Run *
                       *****************************

Geometry optimization settings:
Update method            Update   .... BFGS
Choice of coordinates    CoordSys .... Redundant Internals
Initial Hessian          InHess   .... Almoef's Model

Convergence Tolerances:
Energy Change            TolE     ....  1.0000e-04 Eh
Max. Gradient            TolMAXG  ....  3.0000e-03 Eh/bohr
RMS Gradient             TolRMSG  ....  2.0000e-03 Eh/bohr
Max. Displacement        TolMAXD  ....  3.0000e-02 bohr
RMS Displacement         TolRMSD  ....  2.0000e-02 bohr

------------------------------------------------------------------------------
                        ORCA OPTIMIZATION COORDINATE SETUP
------------------------------------------------------------------------------

The optimization will be done in new redundant internal coordinates
Making redundant internal coordinates   ...  (new redundants) done
Evaluating the initial hessian          ...  (Almloef) done
Evaluating the coordinates              ...  done
Calculating the B-matrix                .... done
Calculating the G-matrix                .... done
Diagonalizing the G-matrix              .... done
Small eigenvalue found = 2.601e-02
The first mode is                       ....   20
The number of degrees of freedom        ....   39

    -----------------------------------------------------------------
                    Redundant Internal Coordinates


    -----------------------------------------------------------------
         Definition                    Initial Value    Approx d2E/dq
    -----------------------------------------------------------------
      1. B(C   2,C   1)                  1.3397         0.751601   
      2. B(C   3,C   2)                  1.4586         0.485554   
      3. B(C   3,C   0)                  1.3450         0.737153   
      4. B(C   4,C   3)                  1.5141         0.396057   
      5. B(C   5,C   4)                  1.5210         0.386200   
      6. B(O   6,C   5)                  1.2263         1.020903   
      7. B(H   7,C   0)                  1.0858         0.365699   
      8. B(H   8,C   1)                  1.0857         0.365794   
      9. B(H   9,C   2)                  1.0904         0.359522   
     10. B(H  10,C   4)                  1.0969         0.351145   
     11. B(H  11,C   4)                  1.0971         0.350875   
     12. B(H  12,C   5)                  1.1048         0.341075   
     13. B(H  13,C   0)                  1.0843         0.367780   
     14. B(H  14,C   1)                  1.0831         0.369361   
     15. A(C   3,C   0,H   7)          121.4951         0.364412   
     16. A(C   3,C   0,H  13)          122.8653         0.364766   
     17. A(H   7,C   0,H  13)          115.6377         0.292515   
     18. A(H   8,C   1,H  14)          116.6039         0.292725   
     19. A(C   2,C   1,H  14)          123.3400         0.366250   
     20. A(C   2,C   1,H   8)          120.0549         0.365641   
     21. A(C   3,C   2,H   9)          115.8019         0.338614   
     22. A(C   1,C   2,H   9)          116.8527         0.364560   
     23. A(C   1,C   2,C   3)          127.3288         0.430033   
     24. A(C   0,C   3,C   4)          120.1224         0.413237   
     25. A(C   2,C   3,C   4)          116.1749         0.384000   
     26. A(C   0,C   3,C   2)          123.6923         0.428538   
     27. A(H  10,C   4,H  11)          106.7668         0.288517   
     28. A(C   5,C   4,H  11)          106.2904         0.324707   
     29. A(C   3,C   4,H  11)          110.8230         0.326056   
     30. A(C   5,C   4,H  10)          107.4903         0.324748   
     31. A(C   3,C   4,H  10)          109.7792         0.326097   
     32. A(C   3,C   4,C   5)          115.2830         0.369104   
     33. A(C   4,C   5,O   6)          126.3843         0.433197   
     34. A(O   6,C   5,H  12)          119.5805         0.378436   
     35. A(C   4,C   5,H  12)          114.0279         0.323201   
     36. D(C   3,C   2,C   1,H  14)      0.6764         0.040303   
     37. D(H   9,C   2,C   1,H  14)    179.1203         0.040303   
     38. D(C   3,C   2,C   1,H   8)   -178.9018         0.040303   
     39. D(H   9,C   2,C   1,H   8)     -0.4580         0.040303   
     40. D(C   2,C   3,C   0,H  13)      1.0217         0.038625   
     41. D(C   4,C   3,C   0,H   7)     -0.7169         0.038625   
     42. D(C   4,C   3,C   2,C   1)   -178.1205         0.016052   
     43. D(C   0,C   3,C   2,C   1)      0.7063         0.016052   
     44. D(C   0,C   3,C   2,H   9)   -177.7516         0.016052   
     45. D(C   4,C   3,C   2,H   9)      3.4216         0.016052   
     46. D(C   4,C   3,C   0,H  13)    179.8044         0.038625   
     47. D(C   2,C   3,C   0,H   7)   -179.4996         0.038625   
     48. D(H  10,C   4,C   3,C   0)   -123.0655         0.011652   
     49. D(C   5,C   4,C   3,C   2)    -65.7332         0.011652   
     50. D(C   5,C   4,C   3,C   0)    115.3953         0.011652   
     51. D(H  11,C   4,C   3,C   2)    173.5003         0.011652   
     52. D(H  11,C   4,C   3,C   0)     -5.3712         0.011652   
     53. D(H  10,C   4,C   3,C   2)     55.8059         0.011652   
     54. D(H  12,C   5,C   4,H  11)    -52.7424         0.011108   
     55. D(H  12,C   5,C   4,H  10)     61.2867         0.011108   
     56. D(H  12,C   5,C   4,C   3)   -175.9462         0.011108   
     57. D(O   6,C   5,C   4,H  11)    128.2513         0.011108   
     58. D(O   6,C   5,C   4,H  10)   -117.7197         0.011108   
     59. D(O   6,C   5,C   4,C   3)      5.0475         0.011108   
    -----------------------------------------------------------------

Number of atoms                         .... 15
Number of degrees of freedom            .... 59

         *************************************************************
         *                GEOMETRY OPTIMIZATION CYCLE   1            *
         *************************************************************
---------------------------------
CARTESIAN COORDINATES (ANGSTROEM)
---------------------------------
  C      0.734800    1.413100   -0.123200
  C      1.565500   -1.469900    0.199800
  C      0.354600   -0.959300    0.460200
  C     -0.068900    0.429300    0.318600
  C     -1.493400    0.738200    0.728300
  C     -2.570600    0.090500   -0.128100
  O     -2.391500   -0.708300   -1.041200
  H      0.384200    2.437300   -0.207200
  H      1.747400   -2.532200    0.331100
  H     -0.413200   -1.658000    0.793900
  H     -1.659300    0.418400    1.764300
  H     -1.682900    1.818300    0.696300
  H     -3.599800    0.385400    0.144500
  H      1.762200    1.242700   -0.424900
  H      2.399800   -0.874600   -0.150400

----------------------------
CARTESIAN COORDINATES (A.U.)
----------------------------
  NO LB      ZA    FRAG     MASS         X           Y           Z
   0 C     6.0000    0    12.011    1.388571    2.670372   -0.232814
   1 C     6.0000    0    12.011    2.958366   -2.777708    0.377567
   2 C     6.0000    0    12.011    0.670097   -1.812814    0.869652
   3 C     6.0000    0    12.011   -0.130202    0.811259    0.602067
   4 C     6.0000    0    12.011   -2.822117    1.394996    1.376288
   5 C     6.0000    0    12.011   -4.857730    0.171020   -0.242074
   6 O     8.0000    0    15.999   -4.519280   -1.338493   -1.967583
   7 H     1.0000    0     1.008    0.726033    4.605830   -0.391551
   8 H     1.0000    0     1.008    3.302107   -4.785165    0.625688
   9 H     1.0000    0     1.008   -0.780835   -3.133166    1.500254
  10 H     1.0000    0     1.008   -3.135623    0.790661    3.334044
  11 H     1.0000    0     1.008   -3.180220    3.436089    1.315816
  12 H     1.0000    0     1.008   -6.802636    0.728300    0.273065
  13 H     1.0000    0     1.008    3.330075    2.348363   -0.802945
  14 H     1.0000    0     1.008    4.534965   -1.652754   -0.284215

--------------------------------
INTERNAL COORDINATES (ANGSTROEM)
--------------------------------
 C      0   0   0     0.000000000000     0.00000000     0.00000000
 C      1   0   0     3.017628288905     0.00000000     0.00000000
 C      2   1   0     1.339701209225    53.69117948     0.00000000
 C      1   2   3     1.344984524075    55.28541597     0.34098455
 C      4   1   2     1.514091658388   120.12240466   178.47938217
 C      5   4   1     1.520952362831   115.28304649   115.39533860
 O      6   5   4     1.226340026257   126.38425300     5.04745597
 H      1   2   3     1.085800165776   176.71090234    12.37348573
 H      2   1   3     1.085729519724   173.63387585    11.17954644
 H      3   2   1     1.090437627744   116.85269860   178.11878026
 H      5   4   1     1.096854981299   109.77918359   236.93447516
 H      5   4   1     1.097064382796   110.82297760   354.62880873
 H      6   5   4     1.104775728372   114.02794886   184.05377946
 H      1   2   3     1.084255417326    67.59130961   181.54482236
 H      2   1   3     1.083087540322    69.65508907   180.89230862

---------------------------
INTERNAL COORDINATES (A.U.)
---------------------------
 C      0   0   0     0.000000000000     0.00000000     0.00000000
 C      1   0   0     5.702491040004     0.00000000     0.00000000
 C      2   1   0     2.531668386719    53.69117948     0.00000000
 C      1   2   3     2.541652404863    55.28541597     0.34098455
 C      4   1   2     2.861218576008   120.12240466   178.47938217
 C      5   4   1     2.874183428490   115.28304649   115.39533860
 O      6   5   4     2.317446796692   126.38425300     5.04745597
 H      1   2   3     2.051864949484   176.71090234    12.37348573
 H      2   1   3     2.051731447792   173.63387585    11.17954644
 H      3   2   1     2.060628482559   116.85269860   178.11878026
 H      5   4   1     2.072755523282   109.77918359   236.93447516
 H      5   4   1     2.073151234764   110.82297760   354.62880873
 H      6   5   4     2.087723566027   114.02794886   184.05377946
 H      1   2   3     2.048945797966    67.59130961   181.54482236
 H      2   1   3     2.046738830270    69.65508907   180.89230862

---------------------
BASIS SET INFORMATION
---------------------
There are 3 groups of distinct atoms

 Group   1 Type C   : 17s4p1d contracted to 3s2p1d pattern {881/31/1}
 Group   2 Type O   : 17s4p1d contracted to 3s2p1d pattern {881/31/1}
 Group   3 Type H   : 4s1p contracted to 2s1p pattern {31/1}

Atom   0C    basis set group =>   1
Atom   1C    basis set group =>   1
Atom   2C    basis set group =>   1
Atom   3C    basis set group =>   1
Atom   4C    basis set group =>   1
Atom   5C    basis set group =>   1
Atom   6O    basis set group =>   2
Atom   7H    basis set group =>   3
Atom   8H    basis set group =>   3
Atom   9H    basis set group =>   3
Atom  10H    basis set group =>   3
Atom  11H    basis set group =>   3
Atom  12H    basis set group =>   3
Atom  13H    basis set group =>   3
Atom  14H    basis set group =>   3
-------------------------------
AUXILIARY BASIS SET INFORMATION
-------------------------------
There are 3 groups of distinct atoms

 Group   1 Type C   : 12s5p4d2f1g contracted to 6s4p3d1f1g pattern {711111/2111/211/2/1}
 Group   2 Type O   : 12s5p4d2f1g contracted to 6s4p3d1f1g pattern {711111/2111/211/2/1}
 Group   3 Type H   : 5s2p1d contracted to 3s1p1d pattern {311/2/1}

Atom   0C    basis set group =>   1
Atom   1C    basis set group =>   1
Atom   2C    basis set group =>   1
Atom   3C    basis set group =>   1
Atom   4C    basis set group =>   1
Atom   5C    basis set group =>   1
Atom   6O    basis set group =>   2
Atom   7H    basis set group =>   3
Atom   8H    basis set group =>   3
Atom   9H    basis set group =>   3
Atom  10H    basis set group =>   3
Atom  11H    basis set group =>   3
Atom  12H    basis set group =>   3
Atom  13H    basis set group =>   3
Atom  14H    basis set group =>   3


           ************************************************************
           *        Program running with 2 parallel MPI-processes     *
           *              working on a common directory               *
           ************************************************************
------------------------------------------------------------------------------
                           ORCA GTO INTEGRAL CALCULATION
                           -- RI-GTO INTEGRALS CHOSEN --
------------------------------------------------------------------------------

                         BASIS SET STATISTICS AND STARTUP INFO

Gaussian basis set:
 # of primitive gaussian shells          ...  194
 # of primitive gaussian functions       ...  294
 # of contracted shells                  ...   66
 # of contracted basis functions         ...  138
 Highest angular momentum                ...    2
 Maximum contraction depth               ...    8
Auxiliary gaussian basis set:
 # of primitive gaussian shells          ...  232
 # of primitive gaussian functions       ...  618
 # of contracted shells                  ...  145
 # of contracted aux-basis functions     ...  431
 Highest angular momentum                ...    4
 Maximum contraction depth               ...    7
Ratio of auxiliary to basis functions    ...  3.12
Integral package used                  ... LIBINT
 One Electron integrals                  ... done
 Ordering auxiliary basis shells         ... done
 Integral threshhold             Thresh  ...  2.500e-11
 Primitive cut-off               TCut    ...  2.500e-12
 Pre-screening matrix                    ... done
 Shell pair data                         ... 
 Ordering of the shell pairs             ... done (   0.000 sec) 2171 of 2211 pairs
 Determination of significant pairs      ... done (   0.000 sec)
 Creation of shell pair data             ... done (   0.001 sec)
 Storage of shell pair data              ... done (   0.478 sec)
 Shell pair data done in (   0.480 sec)
 Computing two index integrals           ... done
 Cholesky decomposition of the V-matrix  ... done


Timings:
 Total evaluation time                   ...   3.661 sec (  0.061 min)
 One electron matrix time                ...   1.471 sec (  0.025 min) = 40.2%
 Schwartz matrix evaluation time         ...   0.197 sec (  0.003 min) =  5.4%
 Two index repulsion integral time       ...   0.527 sec (  0.009 min) = 14.4%
 Cholesky decomposition of V             ...   0.603 sec (  0.010 min) = 16.5%
 Three index repulsion integral time     ...   0.000 sec (  0.000 min) =  0.0%



           ************************************************************
           *        Program running with 2 parallel MPI-processes     *
           *              working on a common directory               *
           ************************************************************
-------------------------------------------------------------------------------
                                 ORCA SCF
-------------------------------------------------------------------------------

------------
SCF SETTINGS
------------
Hamiltonian:
 Density Functional     Method          .... DFT(GTOs)
 Exchange Functional    Exchange        .... B88
   X-Alpha parameter    XAlpha          ....  0.666667
   Becke's b parameter  XBeta           ....  0.004200
 Correlation Functional Correlation     .... LYP
 LDA part of GGA corr.  LDAOpt          .... VWN-5
 Gradients option       PostSCFGGA      .... off
 Hybrid DFT is turned on
   Fraction HF Exchange ScalHFX         ....  0.200000
   Scaling of DF-GGA-X  ScalDFX         ....  0.720000
   Scaling of DF-GGA-C  ScalDFC         ....  0.810000
   Scaling of DF-LDA-C  ScalLDAC        ....  1.000000
   Perturbative correction              ....  0.000000
   NL short-range parameter             ....  4.800000
 RI-approximation to the Coulomb term is turned on
   Number of auxiliary basis functions  .... 431
   RIJ-COSX (HFX calculated with COS-X)).... on


General Settings:
 Integral files         IntName         .... frag_11_c00001
 Hartree-Fock type      HFTyp           .... RHF
 Total Charge           Charge          ....    0
 Multiplicity           Mult            ....    1
 Number of Electrons    NEL             ....   52
 Basis Dimension        Dim             ....  138
 Nuclear Repulsion      ENuc            ....    272.1473843316 Eh

Convergence Acceleration:
 DIIS                   CNVDIIS         .... on
   Start iteration      DIISMaxIt       ....    12
   Startup error        DIISStart       ....  0.200000
   # of expansion vecs  DIISMaxEq       ....     5
   Bias factor          DIISBfac        ....   1.050
   Max. coefficient     DIISMaxC        ....  10.000
 Newton-Raphson         CNVNR           .... off
 SOSCF                  CNVSOSCF        .... on
   Start iteration      SOSCFMaxIt      ....   150
   Startup grad/error   SOSCFStart      ....  0.003300
 Level Shifting         CNVShift        .... on
   Level shift para.    LevelShift      ....    0.2500
   Turn off err/grad.   ShiftErr        ....    0.0010
 Zerner damping         CNVZerner       .... off
 Static damping         CNVDamp         .... on
   Fraction old density DampFac         ....    0.7000
   Max. Damping (<1)    DampMax         ....    0.9800
   Min. Damping (>=0)   DampMin         ....    0.0000
   Turn off err/grad.   DampErr         ....    0.1000
 Fernandez-Rico         CNVRico         .... off

SCF Procedure:
 Maximum # iterations   MaxIter         ....   125
 SCF integral mode      SCFMode         .... Direct
   Integral package                     .... LIBINT
 Reset frequeny         DirectResetFreq ....    20
 Integral Threshold     Thresh          ....  2.500e-11 Eh
 Primitive CutOff       TCut            ....  2.500e-12 Eh

Convergence Tolerance:
 Convergence Check Mode ConvCheckMode   .... Total+1el-Energy
 Convergence forced     ConvForced      .... 0
 Energy Change          TolE            ....  1.000e-08 Eh
 1-El. energy change                    ....  1.000e-05 Eh
 Orbital Gradient       TolG            ....  1.000e-05
 Orbital Rotation angle TolX            ....  1.000e-05
 DIIS Error             TolErr          ....  5.000e-07


Diagonalization of the overlap matrix:
Smallest eigenvalue                        ... 1.479e-03
Time for diagonalization                   ...    0.008 sec
Threshold for overlap eigenvalues          ... 1.000e-08
Number of eigenvalues below threshold      ... 0
Time for construction of square roots      ...    0.888 sec
Total time needed                          ...    0.896 sec

-------------------
DFT GRID GENERATION
-------------------

General Integration Accuracy     IntAcc      ...  4.340
Radial Grid Type                 RadialGrid  ... Gauss-Chebyshev
Angular Grid (max. acc.)         AngularGrid ... Lebedev-110
Angular grid pruning method      GridPruning ... 3 (G Style)
Weight generation scheme         WeightScheme... Becke
Basis function cutoff            BFCut       ...    1.0000e-11
Integration weight cutoff        WCut        ...    1.0000e-14
Grids for H and He will be reduced by one unit

# of grid points (after initial pruning)     ...  18004 (   0.0 sec)
# of grid points (after weights+screening)   ...  16799 (   0.0 sec)
nearest neighbour list constructed           ...    0.0 sec
Grid point re-assignment to atoms done       ...    0.0 sec
Grid point division into batches done        ...    0.0 sec
Reduced shell lists constructed in    0.1 sec

Total number of grid points                  ...    16799
Total number of batches                      ...      271
Average number of points per batch           ...       61
Average number of grid points per atom       ...     1120
Average number of shells per batch           ...    56.42 (85.49%)
Average number of basis functions per batch  ...   116.38 (84.33%)
Average number of large shells per batch     ...    45.18 (80.06%)
Average number of large basis fcns per batch ...    93.09 (79.99%)
Maximum spatial batch extension              ...  18.33, 18.82, 16.57 au
Average spatial batch extension              ...   1.44,  1.41,  1.57 au

Time for grid setup =    1.265 sec

------------------------------
INITIAL GUESS: MODEL POTENTIAL
------------------------------
Loading Hartree-Fock densities                     ... done
Calculating cut-offs                               ... done
Setting up the integral package                    ... done
Initializing the effective Hamiltonian             ... done
Starting the Coulomb interaction                   ... done (   0.1 sec)
Reading the grid                                   ... done
Mapping shells                                     ... done
Starting the XC term evaluation                    ... done (   0.2 sec)
  promolecular density results
     # of electrons  =     51.997889275
     EX              =    -41.340320879
     EC              =     -1.714954745
     EX+EC           =    -43.055275623
Transforming the Hamiltonian                       ... done (   0.2 sec)
Diagonalizing the Hamiltonian                      ... done (   0.0 sec)
Back transforming the eigenvectors                 ... done (   0.0 sec)
Now organizing SCF variables                       ... done
                      ------------------
                      INITIAL GUESS DONE (   2.1 sec)
                      ------------------
--------------------
COSX GRID GENERATION
--------------------

General Integration Accuracy     IntAcc      ...  3.340
Radial Grid Type                 RadialGrid  ... Gauss-Chebyshev
Angular Grid (max. acc.)         AngularGrid ... Lebedev-50
Angular grid pruning method      GridPruning ... 3 (G Style)
Weight generation scheme         WeightScheme... Becke
Basis function cutoff            BFCut       ...    1.0000e-11
Integration weight cutoff        WCut        ...    1.0000e-14
Grids for H and He will be reduced by one unit

# of grid points (after initial pruning)     ...   6620 (   0.1 sec)
# of grid points (after weights+screening)   ...   6217 (   0.0 sec)
nearest neighbour list constructed           ...    0.0 sec
Grid point re-assignment to atoms done       ...    0.0 sec
Grid point division into batches done        ...    0.0 sec
Reduced shell lists constructed in    0.1 sec

Total number of grid points                  ...     6217
Total number of batches                      ...      104
Average number of points per batch           ...       59
Average number of grid points per atom       ...      414
Average number of shells per batch           ...    58.57 (88.74%)
Average number of basis functions per batch  ...   121.25 (87.86%)
Average number of large shells per batch     ...    47.58 (81.25%)
Average number of large basis fcns per batch ...    98.34 (81.11%)
Maximum spatial batch extension              ...  13.69, 13.93, 19.86 au
Average spatial batch extension              ...   1.76,  1.76,  2.15 au

Overlap Fitting                  UseSFitting ... on
Constructing numerical overlap ... done (      0.0 sec)
Inverting numerical overlap    ... done (      0.0 sec)
Obtaining analytic overlap     ... done (      0.1 sec)
Final contraction and storage  ... done (      0.5 sec)


General Integration Accuracy     IntAcc      ...  3.670
Radial Grid Type                 RadialGrid  ... Gauss-Chebyshev
Angular Grid (max. acc.)         AngularGrid ... Lebedev-50
Angular grid pruning method      GridPruning ... 3 (G Style)
Weight generation scheme         WeightScheme... Becke
Basis function cutoff            BFCut       ...    1.0000e-11
Integration weight cutoff        WCut        ...    1.0000e-14
Grids for H and He will be reduced by one unit

# of grid points (after initial pruning)     ...   8454 (   0.0 sec)
# of grid points (after weights+screening)   ...   7922 (   0.0 sec)
nearest neighbour list constructed           ...    0.0 sec
Grid point re-assignment to atoms done       ...    0.0 sec
Grid point division into batches done        ...    0.0 sec
Reduced shell lists constructed in    0.1 sec

Total number of grid points                  ...     7922
Total number of batches                      ...      133
Average number of points per batch           ...       59
Average number of grid points per atom       ...      528
Average number of shells per batch           ...    58.12 (88.06%)
Average number of basis functions per batch  ...   120.09 (87.02%)
Average number of large shells per batch     ...    46.87 (80.64%)
Average number of large basis fcns per batch ...    96.37 (80.25%)
Maximum spatial batch extension              ...  14.79, 14.90, 22.24 au
Average spatial batch extension              ...   1.68,  1.67,  1.96 au

Overlap Fitting                  UseSFitting ... on
Constructing numerical overlap ... done (      0.0 sec)
Inverting numerical overlap    ... done (      0.0 sec)
Obtaining analytic overlap     ... done (      0.1 sec)
Final contraction and storage  ... done (      0.4 sec)


General Integration Accuracy     IntAcc      ...  4.010
Radial Grid Type                 RadialGrid  ... Gauss-Chebyshev
Angular Grid (max. acc.)         AngularGrid ... Lebedev-110
Angular grid pruning method      GridPruning ... 3 (G Style)
Weight generation scheme         WeightScheme... Becke
Basis function cutoff            BFCut       ...    1.0000e-11
Integration weight cutoff        WCut        ...    1.0000e-14
Grids for H and He will be reduced by one unit

# of grid points (after initial pruning)     ...  15574 (   0.0 sec)
# of grid points (after weights+screening)   ...  14562 (   0.0 sec)
nearest neighbour list constructed           ...    0.0 sec
Grid point re-assignment to atoms done       ...    0.0 sec
Grid point division into batches done        ...    0.0 sec
Reduced shell lists constructed in    0.1 sec

Total number of grid points                  ...    14562
Total number of batches                      ...      235
Average number of points per batch           ...       61
Average number of grid points per atom       ...      971
Average number of shells per batch           ...    56.70 (85.91%)
Average number of basis functions per batch  ...   116.95 (84.75%)
Average number of large shells per batch     ...    45.63 (80.48%)
Average number of large basis fcns per batch ...    93.66 (80.09%)
Maximum spatial batch extension              ...  18.44, 14.51, 20.15 au
Average spatial batch extension              ...   1.47,  1.42,  1.66 au

Overlap Fitting                  UseSFitting ... on
Constructing numerical overlap ... done (      0.1 sec)
Inverting numerical overlap    ... done (      0.0 sec)
Obtaining analytic overlap     ... done (      0.2 sec)
Final contraction and storage  ... done (      0.6 sec)

Time for X-Grid setup             =    7.103 sec
--------------
SCF ITERATIONS
--------------
ITER       Energy         Delta-E        Max-DP      RMS-DP      [F,P]     Damp
               ***  Starting incremental Fock matrix formation  ***
  0   -308.2232573322   0.000000000000 0.09771477  0.00276952  0.2395259 0.7000
  1   -308.3270933049  -0.103835972722 0.05975308  0.00182495  0.0834283 0.7000
                               ***Turning on DIIS***
  2   -308.3652630485  -0.038169743560 0.05599539  0.00270351  0.0348159 0.0000
  3   -308.4279796315  -0.062716582986 0.05193620  0.00134385  0.0407180 0.0000
  4   -308.4407853085  -0.012805677030 0.01231020  0.00040311  0.0255370 0.0000
  5   -308.4422233330  -0.001438024492 0.00308666  0.00011509  0.0046236 0.0000
                      *** Initiating the SOSCF procedure ***
                           *** Shutting down DIIS ***
                      *** Re-Reading the Fockian *** 
                      *** Removing any level shift *** 
ITER      Energy       Delta-E        Grad      Rot      Max-DP    RMS-DP
  6   -308.44228183  -0.0000584963  0.000221  0.000221  0.001874  0.000068
               *** Restarting incremental Fock matrix formation ***
  7   -308.44228308  -0.0000012508  0.000248  0.000896  0.000969  0.000029
  8   -308.44228083   0.0000022508  0.000482  0.000586  0.000656  0.000018
  9   -308.44228398  -0.0000031460  0.000026  0.000059  0.000146  0.000004
 10   -308.44228395   0.0000000246  0.000042  0.000045  0.000088  0.000002
 11   -308.44228401  -0.0000000571  0.000013  0.000028  0.000062  0.000002
 12   -308.44228400   0.0000000042  0.000021  0.000017  0.000039  0.000001
                 **** Energy Check signals convergence ****
              ***Rediagonalizing the Fockian in SOSCF/NRSCF***

               *****************************************************
               *                     SUCCESS                       *
               *           SCF CONVERGED AFTER  13 CYCLES          *
               *****************************************************

Setting up the final grid:

General Integration Accuracy     IntAcc      ...  4.670
Radial Grid Type                 RadialGrid  ... Gauss-Chebyshev
Angular Grid (max. acc.)         AngularGrid ... Lebedev-302
Angular grid pruning method      GridPruning ... 3 (G Style)
Weight generation scheme         WeightScheme... Becke
Basis function cutoff            BFCut       ...    1.0000e-11
Integration weight cutoff        WCut        ...    1.0000e-14
Grids for H and He will be reduced by one unit

# of grid points (after initial pruning)     ...  70636 (   0.1 sec)
# of grid points (after weights+screening)   ...  65070 (   0.1 sec)
nearest neighbour list constructed           ...    0.0 sec
Grid point re-assignment to atoms done       ...    0.0 sec
Grid point division into batches done        ...    0.3 sec
Reduced shell lists constructed in    1.1 sec

Total number of grid points                  ...    65070
Total number of batches                      ...     1024
Average number of points per batch           ...       63
Average number of grid points per atom       ...     4338
Average number of shells per batch           ...    52.89 (80.14%)
Average number of basis functions per batch  ...   108.66 (78.74%)
Average number of large shells per batch     ...    41.53 (78.53%)
Average number of large basis fcns per batch ...    84.97 (78.20%)
Maximum spatial batch extension              ...  16.10, 15.10, 20.51 au
Average spatial batch extension              ...   0.98,  0.97,  1.03 au

Final grid set up in    2.6 sec
Final integration                            ... done (   3.5 sec)
Change in XC energy                          ...     0.000417997
Integrated number of electrons               ...    52.000048368
Previous integrated no of electrons          ...    52.002259376
Old exchange energy                            =     -8.420364123 Eh
New exchange energy                            =     -8.419765684 Eh
Exchange energy change after final integration =      0.000598439 Eh
Total energy after final integration           =   -308.441267575 Eh
Final COS-X integration done in                =     2.943 sec

----------------
TOTAL SCF ENERGY
----------------

Total Energy       :         -308.44126757 Eh           -8393.11359 eV

Components:
Nuclear Repulsion  :          272.14738433 Eh            7405.50682 eV
Electronic Energy  :         -580.58865191 Eh          -15798.62040 eV
One Electron Energy:         -955.72328606 Eh          -26006.55276 eV
Two Electron Energy:          375.13463415 Eh           10207.93236 eV

Virial components:
Potential Energy   :         -614.89959267 Eh          -16732.26857 eV
Kinetic Energy     :          306.45832509 Eh            8339.15498 eV
Virial Ratio       :            2.00647051


DFT components:
N(Alpha)           :       26.000024184028 electrons
N(Beta)            :       26.000024184028 electrons
N(Total)           :       52.000048368055 electrons
E(X)               :      -33.431742123560 Eh       
E(C)               :       -2.032789508982 Eh       
E(XC)              :      -35.464531632541 Eh       

---------------
SCF CONVERGENCE
---------------

  Last Energy change         ...   -6.5439e-09  Tolerance :   1.0000e-08
  Last MAX-Density change    ...    6.7793e-14  Tolerance :   1.0000e-07
  Last RMS-Density change    ...    9.1349e-16  Tolerance :   5.0000e-09
  Last Orbital Gradient      ...    1.1582e-06  Tolerance :   1.0000e-05
  Last Orbital Rotation      ...    6.2180e-06  Tolerance :   1.0000e-05

             **** THE GBW FILE WAS UPDATED (frag_11_c00001.gbw) ****
             **** DENSITY FILE WAS UPDATED (frag_11_c00001.scfp.tmp) ****
             **** ENERGY FILE WAS UPDATED (frag_11_c00001.en.tmp) ****
----------------
ORBITAL ENERGIES
----------------

  NO   OCC          E(Eh)            E(eV) 
   0   2.0000     -19.143687      -520.9262 
   1   2.0000     -10.280841      -279.7559 
   2   2.0000     -10.206756      -277.7400 
   3   2.0000     -10.202949      -277.6363 
   4   2.0000     -10.189530      -277.2712 
   5   2.0000     -10.182877      -277.0902 
   6   2.0000     -10.182250      -277.0731 
   7   2.0000      -1.040523       -28.3141 
   8   2.0000      -0.829690       -22.5770 
   9   2.0000      -0.757679       -20.6175 
  10   2.0000      -0.714603       -19.4453 
  11   2.0000      -0.625119       -17.0103 
  12   2.0000      -0.577108       -15.7039 
  13   2.0000      -0.517423       -14.0798 
  14   2.0000      -0.481808       -13.1106 
  15   2.0000      -0.481044       -13.0899 
  16   2.0000      -0.461564       -12.5598 
  17   2.0000      -0.428203       -11.6520 
  18   2.0000      -0.420014       -11.4292 
  19   2.0000      -0.404709       -11.0127 
  20   2.0000      -0.368974       -10.0403 
  21   2.0000      -0.356265        -9.6945 
  22   2.0000      -0.347037        -9.4434 
  23   2.0000      -0.315666        -8.5897 
  24   2.0000      -0.258783        -7.0418 
  25   2.0000      -0.227605        -6.1934 
  26   0.0000      -0.038757        -1.0546 
  27   0.0000      -0.026313        -0.7160 
  28   0.0000       0.053826         1.4647 
  29   0.0000       0.077228         2.1015 
  30   0.0000       0.088283         2.4023 
  31   0.0000       0.091755         2.4968 
  32   0.0000       0.109129         2.9695 
  33   0.0000       0.115072         3.1313 
  34   0.0000       0.145635         3.9629 
  35   0.0000       0.165559         4.5051 
  36   0.0000       0.180724         4.9178 
  37   0.0000       0.202916         5.5216 
  38   0.0000       0.257999         7.0205 
  39   0.0000       0.285111         7.7583 
  40   0.0000       0.299313         8.1447 
  41   0.0000       0.318983         8.6800 
  42   0.0000       0.383325        10.4308 
  43   0.0000       0.414942        11.2911 
  44   0.0000       0.439895        11.9701 
  45   0.0000       0.462400        12.5825 
  46   0.0000       0.473188        12.8761 
  47   0.0000       0.480766        13.0823 
  48   0.0000       0.498104        13.5541 
  49   0.0000       0.518229        14.1017 
  50   0.0000       0.530153        14.4262 
  51   0.0000       0.537572        14.6281 
  52   0.0000       0.545704        14.8494 
  53   0.0000       0.557098        15.1594 
  54   0.0000       0.571984        15.5645 
  55   0.0000       0.608632        16.5617 
  56   0.0000       0.618967        16.8430 
  57   0.0000       0.637481        17.3467 
  58   0.0000       0.641090        17.4449 
  59   0.0000       0.664742        18.0885 
  60   0.0000       0.671263        18.2660 
  61   0.0000       0.686856        18.6903 
  62   0.0000       0.694339        18.8939 
  63   0.0000       0.699292        19.0287 
  64   0.0000       0.773591        21.0505 
  65   0.0000       0.785910        21.3857 
  66   0.0000       0.797391        21.6981 
  67   0.0000       0.841688        22.9035 
  68   0.0000       0.877525        23.8787 
  69   0.0000       0.905396        24.6371 
  70   0.0000       0.945591        25.7308 
  71   0.0000       0.967828        26.3359 
  72   0.0000       0.983212        26.7545 
  73   0.0000       1.004776        27.3414 
  74   0.0000       1.023452        27.8495 
  75   0.0000       1.031034        28.0559 
  76   0.0000       1.061333        28.8803 
  77   0.0000       1.079358        29.3708 
  78   0.0000       1.090785        29.6818 
  79   0.0000       1.111830        30.2544 
  80   0.0000       1.149503        31.2796 
  81   0.0000       1.168356        31.7926 
  82   0.0000       1.238463        33.7003 
  83   0.0000       1.265721        34.4420 
  84   0.0000       1.327743        36.1297 
  85   0.0000       1.389747        37.8169 
  86   0.0000       1.400770        38.1169 
  87   0.0000       1.439622        39.1741 
  88   0.0000       1.456032        39.6206 
  89   0.0000       1.482868        40.3509 
  90   0.0000       1.487384        40.4738 
  91   0.0000       1.513542        41.1856 
  92   0.0000       1.525416        41.5087 
  93   0.0000       1.549644        42.1680 
  94   0.0000       1.564988        42.5855 
  95   0.0000       1.596296        43.4374 
  96   0.0000       1.614355        43.9288 
  97   0.0000       1.631683        44.4003 
  98   0.0000       1.669797        45.4375 
  99   0.0000       1.675050        45.5804 
 100   0.0000       1.680724        45.7348 
 101   0.0000       1.685040        45.8523 
 102   0.0000       1.705852        46.4186 
 103   0.0000       1.721949        46.8566 
 104   0.0000       1.737071        47.2681 
 105   0.0000       1.799340        48.9625 
 106   0.0000       1.821861        49.5754 
 107   0.0000       1.845509        50.2189 
 108   0.0000       1.875585        51.0373 
 109   0.0000       1.884763        51.2870 
 110   0.0000       1.893307        51.5195 
 111   0.0000       1.924486        52.3679 
 112   0.0000       1.960418        53.3457 
 113   0.0000       1.981751        53.9262 
 114   0.0000       1.990038        54.1517 
 115   0.0000       2.049140        55.7599 
 116   0.0000       2.116244        57.5859 
 117   0.0000       2.175127        59.1882 
 118   0.0000       2.210480        60.1502 
 119   0.0000       2.265427        61.6454 
 120   0.0000       2.276309        61.9415 
 121   0.0000       2.295383        62.4606 
 122   0.0000       2.306933        62.7748 
 123   0.0000       2.349593        63.9357 
 124   0.0000       2.434155        66.2367 
 125   0.0000       2.448964        66.6397 
 126   0.0000       2.452615        66.7391 
 127   0.0000       2.554750        69.5183 
 128   0.0000       2.607075        70.9421 
 129   0.0000       2.642530        71.9069 
 130   0.0000       2.706602        73.6504 
 131   0.0000       2.769067        75.3502 
 132   0.0000       2.819968        76.7352 
 133   0.0000       2.824721        76.8646 
 134   0.0000       3.074721        83.6674 
 135   0.0000       3.174996        86.3960 
 136   0.0000       3.327659        90.5502 
 137   0.0000       3.424202        93.1773 

                    ********************************
                    * MULLIKEN POPULATION ANALYSIS *
                    ********************************

-----------------------
MULLIKEN ATOMIC CHARGES
-----------------------
   0 C :    0.050808
   1 C :    0.045281
   2 C :    0.004149
   3 C :   -0.129245
   4 C :   -0.000771
   5 C :    0.163343
   6 O :   -0.193681
   7 H :    0.002030
   8 H :    0.017390
   9 H :   -0.033612
  10 H :    0.045959
  11 H :    0.029449
  12 H :   -0.016520
  13 H :    0.011136
  14 H :    0.004284
Sum of atomic charges:   -0.0000000

--------------------------------
MULLIKEN REDUCED ORBITAL CHARGES
--------------------------------
  0 C s       :     3.011907  s :     3.011907
      pz      :     1.013756  p :     2.894711
      px      :     0.922971
      py      :     0.957985
      dz2     :     0.002901  d :     0.042574
      dxz     :     0.004782
      dyz     :     0.005311
      dx2y2   :     0.019549
      dxy     :     0.010030
  1 C s       :     3.024871  s :     3.024871
      pz      :     0.981028  p :     2.885943
      px      :     0.990845
      py      :     0.914069
      dz2     :     0.001577  d :     0.043905
      dxz     :     0.008232
      dyz     :     0.002335
      dx2y2   :     0.015905
      dxy     :     0.015856
  2 C s       :     3.125286  s :     3.125286
      pz      :     0.962404  p :     2.804715
      px      :     0.920649
      py      :     0.921663
      dz2     :     0.003574  d :     0.065850
      dxz     :     0.009025
      dyz     :     0.009593
      dx2y2   :     0.018328
      dxy     :     0.025330
  3 C s       :     3.149734  s :     3.149734
      pz      :     0.953040  p :     2.893633
      px      :     0.958447
      py      :     0.982146
      dz2     :     0.007928  d :     0.085878
      dxz     :     0.012026
      dyz     :     0.014161
      dx2y2   :     0.028837
      dxy     :     0.022926
  4 C s       :     3.015787  s :     3.015787
      pz      :     0.997430  p :     2.923538
      px      :     0.951452
      py      :     0.974657
      dz2     :     0.012640  d :     0.061446
      dxz     :     0.014590
      dyz     :     0.004795
      dx2y2   :     0.016967
      dxy     :     0.012454
  5 C s       :     3.125415  s :     3.125415
      pz      :     0.828848  p :     2.568867
      px      :     0.933364
      py      :     0.806655
      dz2     :     0.032434  d :     0.142375
      dxz     :     0.036655
      dyz     :     0.021502
      dx2y2   :     0.022509
      dxy     :     0.029274
  6 O s       :     3.761479  s :     3.761479
      pz      :     1.327191  p :     4.414310
      px      :     1.785967
      py      :     1.301152
      dz2     :     0.005015  d :     0.017893
      dxz     :     0.002411
      dyz     :     0.006021
      dx2y2   :     0.002631
      dxy     :     0.001815
  7 H s       :     0.967662  s :     0.967662
      pz      :     0.006327  p :     0.030308
      px      :     0.006772
      py      :     0.017208
  8 H s       :     0.952397  s :     0.952397
      pz      :     0.006313  p :     0.030213
      px      :     0.005588
      py      :     0.018312
  9 H s       :     1.004814  s :     1.004814
      pz      :     0.006998  p :     0.028798
      px      :     0.011477
      py      :     0.010323
 10 H s       :     0.924922  s :     0.924922
      pz      :     0.016856  p :     0.029119
      px      :     0.005092
      py      :     0.007171
 11 H s       :     0.941643  s :     0.941643
      pz      :     0.006225  p :     0.028907
      px      :     0.004849
      py      :     0.017833
 12 H s       :     0.990892  s :     0.990892
      pz      :     0.003771  p :     0.025627
      px      :     0.017902
      py      :     0.003954
 13 H s       :     0.958697  s :     0.958697
      pz      :     0.006939  p :     0.030167
      px      :     0.017397
      py      :     0.005831
 14 H s       :     0.965315  s :     0.965315
      pz      :     0.007339  p :     0.030400
      px      :     0.013390
      py      :     0.009672


                     *******************************
                     * LOEWDIN POPULATION ANALYSIS *
                     *******************************

----------------------
LOEWDIN ATOMIC CHARGES
----------------------
   0 C :   -0.033962
   1 C :   -0.028145
   2 C :   -0.028188
   3 C :   -0.034447
   4 C :   -0.061702
   5 C :   -0.005586
   6 O :   -0.012682
   7 H :    0.020201
   8 H :    0.027112
   9 H :    0.027557
  10 H :    0.049071
  11 H :    0.046771
  12 H :   -0.005732
  13 H :    0.021214
  14 H :    0.018519

-------------------------------
LOEWDIN REDUCED ORBITAL CHARGES
-------------------------------
  0 C s       :     2.837919  s :     2.837919
      pz      :     0.982919  p :     3.053268
      px      :     1.033077
      py      :     1.037272
      dz2     :     0.012053  d :     0.142775
      dxz     :     0.015473
      dyz     :     0.014753
      dx2y2   :     0.063185
      dxy     :     0.037310
  1 C s       :     2.839087  s :     2.839087
      pz      :     0.960766  p :     3.045180
      px      :     1.055822
      py      :     1.028592
      dz2     :     0.010034  d :     0.143878
      dxz     :     0.022229
      dyz     :     0.006846
      dx2y2   :     0.052663
      dxy     :     0.052106
  2 C s       :     2.819557  s :     2.819557
      pz      :     0.943608  p :     3.005199
      px      :     1.055585
      py      :     1.006007
      dz2     :     0.013152  d :     0.203432
      dxz     :     0.025471
      dyz     :     0.024850
      dx2y2   :     0.058734
      dxy     :     0.081225
  3 C s       :     2.811270  s :     2.811270
      pz      :     0.930273  p :     2.977181
      px      :     0.999092
      py      :     1.047817
      dz2     :     0.022222  d :     0.245996
      dxz     :     0.029544
      dyz     :     0.038634
      dx2y2   :     0.086763
      dxy     :     0.068832
  4 C s       :     2.803241  s :     2.803241
      pz      :     1.033776  p :     3.075297
      px      :     1.008242
      py      :     1.033278
      dz2     :     0.040929  d :     0.183164
      dxz     :     0.041671
      dyz     :     0.015144
      dx2y2   :     0.051785
      dxy     :     0.033635
  5 C s       :     2.881877  s :     2.881877
      pz      :     0.888505  p :     2.756062
      px      :     1.019998
      py      :     0.847559
      dz2     :     0.069478  d :     0.367648
      dxz     :     0.101748
      dyz     :     0.063751
      dx2y2   :     0.053178
      dxy     :     0.079493
  6 O s       :     3.510834  s :     3.510834
      pz      :     1.379158  p :     4.471293
      px      :     1.753667
      py      :     1.338467
      dz2     :     0.006595  d :     0.030554
      dxz     :     0.004241
      dyz     :     0.012447
      dx2y2   :     0.004013
      dxy     :     0.003258
  7 H s       :     0.896159  s :     0.896159
      pz      :     0.019517  p :     0.083640
      px      :     0.019899
      py      :     0.044224
  8 H s       :     0.890106  s :     0.890106
      pz      :     0.019323  p :     0.082783
      px      :     0.015922
      py      :     0.047537
  9 H s       :     0.893086  s :     0.893086
      pz      :     0.019964  p :     0.079358
      px      :     0.030164
      py      :     0.029230
 10 H s       :     0.869716  s :     0.869716
      pz      :     0.044700  p :     0.081213
      px      :     0.017328
      py      :     0.019184
 11 H s       :     0.873738  s :     0.873738
      pz      :     0.016796  p :     0.079491
      px      :     0.016134
      py      :     0.046561
 12 H s       :     0.928092  s :     0.928092
      pz      :     0.013039  p :     0.077640
      px      :     0.051099
      py      :     0.013502
 13 H s       :     0.894492  s :     0.894492
      pz      :     0.021183  p :     0.084294
      px      :     0.046002
      py      :     0.017109
 14 H s       :     0.897550  s :     0.897550
      pz      :     0.021782  p :     0.083931
      px      :     0.034432
      py      :     0.027717


                      *****************************
                      * MAYER POPULATION ANALYSIS *
                      *****************************

  NA   - Mulliken gross atomic population
  ZA   - Total nuclear charge
  QA   - Mulliken gross atomic charge
  VA   - Mayer's total valence
  BVA  - Mayer's bonded valence
  FA   - Mayer's free valence

  ATOM       NA         ZA         QA         VA         BVA        FA
  0 C      5.9492     6.0000     0.0508     3.9624     3.9624     0.0000
  1 C      5.9547     6.0000     0.0453     3.9826     3.9826    -0.0000
  2 C      5.9959     6.0000     0.0041     4.1336     4.1336    -0.0000
  3 C      6.1292     6.0000    -0.1292     4.3787     4.3787    -0.0000
  4 C      6.0008     6.0000    -0.0008     3.8681     3.8681     0.0000
  5 C      5.8367     6.0000     0.1633     4.1775     4.1775     0.0000
  6 O      8.1937     8.0000    -0.1937     2.3261     2.3261    -0.0000
  7 H      0.9980     1.0000     0.0020     0.9772     0.9772     0.0000
  8 H      0.9826     1.0000     0.0174     0.9683     0.9683    -0.0000
  9 H      1.0336     1.0000    -0.0336     0.9835     0.9835     0.0000
 10 H      0.9540     1.0000     0.0460     0.9714     0.9714    -0.0000
 11 H      0.9706     1.0000     0.0294     0.9847     0.9847    -0.0000
 12 H      1.0165     1.0000    -0.0165     0.9640     0.9640     0.0000
 13 H      0.9889     1.0000     0.0111     0.9739     0.9739     0.0000
 14 H      0.9957     1.0000     0.0043     0.9759     0.9759    -0.0000

  Mayer bond orders larger than 0.1
B(  0-C ,  1-C ) :   0.1031 B(  0-C ,  3-C ) :   2.0017 B(  0-C ,  7-H ) :   0.9070 
B(  0-C , 13-H ) :   0.9136 B(  1-C ,  2-C ) :   1.9993 B(  1-C ,  8-H ) :   0.9254 
B(  1-C , 14-H ) :   0.9304 B(  2-C ,  3-C ) :   1.1192 B(  2-C ,  9-H ) :   0.9278 
B(  3-C ,  4-C ) :   1.0543 B(  4-C ,  5-C ) :   0.9931 B(  4-C , 10-H ) :   0.9069 
B(  4-C , 11-H ) :   0.9135 B(  5-C ,  6-O ) :   2.2195 B(  5-C , 12-H ) :   0.9201 


-------
TIMINGS
-------

Total SCF time: 0 days 0 hours 2 min 13 sec 

Total time                  ....     133.697 sec
Sum of individual times     ....     113.557 sec  ( 84.9%)

Fock matrix formation       ....      97.577 sec  ( 73.0%)
  Split-RI-J                ....      11.178 sec  ( 11.5% of F)
  Chain of spheres X        ....      23.768 sec  ( 24.4% of F)
  COS-X 1 center corr.      ....       0.000 sec  (  0.0% of F)
  XC integration            ....      28.863 sec  ( 29.6% of F)
    Basis function eval.    ....       1.187 sec  (  4.1% of XC)
    Density eval.           ....       0.551 sec  (  1.9% of XC)
    XC-Functional eval.     ....       0.200 sec  (  0.7% of XC)
    XC-Potential eval.      ....       0.994 sec  (  3.4% of XC)
Diagonalization             ....       0.621 sec  (  0.5%)
Density matrix formation    ....       0.052 sec  (  0.0%)
Population analysis         ....       0.793 sec  (  0.6%)
Initial guess               ....       0.881 sec  (  0.7%)
Orbital Transformation      ....       0.000 sec  (  0.0%)
Orbital Orthonormalization  ....       0.000 sec  (  0.0%)
DIIS solution               ....       1.565 sec  (  1.2%)
SOSCF solution              ....       1.077 sec  (  0.8%)
Grid generation             ....      10.990 sec  (  8.2%)

-------------------------   --------------------
FINAL SINGLE POINT ENERGY      -308.441267574663
-------------------------   --------------------



           ************************************************************
           *        Program running with 2 parallel MPI-processes     *
           *              working on a common directory               *
           ************************************************************
------------------------------------------------------------------------------
                         ORCA SCF GRADIENT CALCULATION
------------------------------------------------------------------------------

Gradient of the Kohn-Sham DFT energy:
Kohn-Sham wavefunction type      ... RKS
Hartree-Fock exchange scaling    ...    0.200
Number of operators              ...    1
Number of atoms                  ...   15
Basis set dimensions             ...  138
Integral neglect threshold       ... 2.5e-11
Integral primitive cutoff        ... 2.5e-12

Nuclear repulsion gradient       ... done
One Electron Gradient            ... done
Pre-screening matrix             ... done
RI-J gradient                    ... done
COSX-gradient                    ... done
Exchange-correlation gradient    ... done

------------------
CARTESIAN GRADIENT
------------------

   1   C   :    0.003845168    0.000319285   -0.001239565
   2   C   :    0.003133461    0.001973759   -0.001748513
   3   C   :   -0.003460539    0.010721492    0.001758152
   4   C   :    0.001169524   -0.012165284    0.001316439
   5   C   :   -0.004301744    0.004292214    0.012262649
   6   C   :   -0.008998252    0.021621353    0.019193452
   7   O   :    0.000547406   -0.018376133   -0.021382177
   8   H   :    0.002903927   -0.004267007    0.000009325
   9   H   :   -0.001480838    0.004382962   -0.000586929
  10   H   :    0.002852395    0.001119276   -0.001302661
  11   H   :    0.004446703    0.001484864   -0.006729852
  12   H   :    0.000955410   -0.004789945   -0.001644075
  13   H   :    0.008899815   -0.004309133   -0.003432760
  14   H   :   -0.005069856    0.002739817    0.001034254
  15   H   :   -0.004743539   -0.004465508    0.002191667

Difference to translation invariance:
           :    0.0006990400    0.0002820140   -0.0003005941

Norm of the cartesian gradient     ...    0.0505768083
RMS gradient                       ...    0.0075395454
MAX gradient                       ...    0.0216213528

-------
TIMINGS
-------

Total SCF gradient time            ...        9.203 sec

One electron gradient       ....       0.111 sec  (  1.2%)
Prescreening matrices       ....       0.146 sec  (  1.6%)
RI-J Coulomb gradient       ....       1.034 sec  ( 11.2%)
COSX gradient               ....       4.121 sec  ( 44.8%)
XC gradient                 ....       2.462 sec  ( 26.8%)
------------------------------------------------------------------------------
                         ORCA GEOMETRY RELAXATION STEP
------------------------------------------------------------------------------

Reading the OPT-File                    .... done
Getting information on internals        .... done
Copying old internal coords+grads       .... done
Making the new internal coordinates     .... (new redundants).... done
Validating the new internal coordinates .... (new redundants).... done
Calculating the B-matrix                .... done
Calculating the G,G- and P matrices     .... done
Transforming gradient to internals      .... done
Projecting the internal gradient        .... done
Number of atoms                         ....  15
Number of internal coordinates          ....  59
Current Energy                          ....  -308.441267575 Eh
Current gradient norm                   ....     0.050576808 Eh/bohr
Maximum allowed component of the step   ....  0.300
Current trust radius                    ....  0.300
Evaluating the initial hessian          ....  (Almloef) done
Projecting the Hessian                  .... done
Forming the augmented Hessian           .... done
Diagonalizing the augmented Hessian     .... done
Last element of RFO vector              ....  0.991867400
Lowest eigenvalues of augmented Hessian:
 -0.002608311  0.011114419  0.011169610  0.011703296  0.016092775
Length of the computed step             ....  0.128319097
The final length of the internal step   ....  0.128319097
Converting the step to cartesian space:
 Initial RMS(Int)=    0.0167057235
Transforming coordinates:
 Iter   0:  RMS(Cart)=    0.0296942911 RMS(Int)=    1.1536557721
 Iter   1:  RMS(Cart)=    0.0005184313 RMS(Int)=    0.0003320758
 Iter   2:  RMS(Cart)=    0.0000206451 RMS(Int)=    0.0000107309
 Iter   3:  RMS(Cart)=    0.0000007751 RMS(Int)=    0.0000005215
 Iter   4:  RMS(Cart)=    0.0000000310 RMS(Int)=    0.0000000150
done
Storing new coordinates                 .... done

                                .--------------------.
          ----------------------|Geometry convergence|-------------------------
          Item                value                   Tolerance       Converged
          ---------------------------------------------------------------------
          RMS gradient        0.0049003344            0.0020000000      NO
          MAX gradient        0.0278670591            0.0030000000      NO
          RMS step            0.0167057235            0.0200000000      YES
          MAX step            0.0447544251            0.0300000000      NO
          ........................................................
          Max(Bonds)      0.0157      Max(Angles)    0.83
          Max(Dihed)        2.56      Max(Improp)    0.00
          ---------------------------------------------------------------------

The optimization has not yet converged - more geometry cycles are needed


    ---------------------------------------------------------------------------
                         Redundant Internal Coordinates
                            (Angstroem and degrees)

        Definition                    Value    dE/dq     Step     New-Value
    ----------------------------------------------------------------------------
     1. B(C   2,C   1)                1.3397 -0.003529  0.0025    1.3422   
     2. B(C   3,C   2)                1.4586 -0.014142  0.0153    1.4740   
     3. B(C   3,C   0)                1.3450  0.000061 -0.0000    1.3449   
     4. B(C   4,C   3)                1.5141 -0.001533  0.0020    1.5161   
     5. B(C   5,C   4)                1.5210  0.003224 -0.0044    1.5166   
     6. B(O   6,C   5)                1.2263  0.027867 -0.0144    1.2119   
     7. B(H   7,C   0)                1.0858 -0.004948  0.0071    1.0929   
     8. B(H   8,C   1)                1.0857 -0.004617  0.0066    1.0924   
     9. B(H   9,C   2)                1.0904 -0.003101  0.0045    1.0950   
    10. B(H  10,C   4)                1.0969 -0.007365  0.0110    1.1079   
    11. B(H  11,C   4)                1.0971 -0.004858  0.0073    1.1043   
    12. B(H  12,C   5)                1.1048 -0.010196  0.0157    1.1205   
    13. B(H  13,C   0)                1.0843 -0.005580  0.0080    1.0922   
    14. B(H  14,C   1)                1.0831 -0.006822  0.0097    1.0928   
    15. A(C   3,C   0,H   7)          121.50  0.000498   -0.10    121.39   
    16. A(C   3,C   0,H  13)          122.87  0.001747   -0.30    122.57   
    17. A(H   7,C   0,H  13)          115.64 -0.002245    0.40    116.04   
    18. A(H   8,C   1,H  14)          116.60 -0.000120    0.02    116.63   
    19. A(C   2,C   1,H  14)          123.34  0.001618   -0.25    123.09   
    20. A(C   2,C   1,H   8)          120.05 -0.001500    0.23    120.29   
    21. A(C   3,C   2,H   9)          115.80  0.001164   -0.18    115.62   
    22. A(C   1,C   2,H   9)          116.85 -0.001157    0.20    117.05   
    23. A(C   1,C   2,C   3)          127.33 -0.000024    0.02    127.34   
    24. A(C   0,C   3,C   4)          120.12  0.002187   -0.30    119.82   
    25. A(C   2,C   3,C   4)          116.17 -0.000719    0.11    116.28   
    26. A(C   0,C   3,C   2)          123.69 -0.001467    0.19    123.89   
    27. A(H  10,C   4,H  11)          106.77  0.000876   -0.54    106.23   
    28. A(C   5,C   4,H  11)          106.29 -0.000569    0.22    106.51   
    29. A(C   3,C   4,H  11)          110.82  0.000995    0.00    110.83   
    30. A(C   5,C   4,H  10)          107.49  0.003714   -0.83    106.66   
    31. A(C   3,C   4,H  10)          109.78 -0.002455    0.55    110.33   
    32. A(C   3,C   4,C   5)          115.28 -0.002204    0.49    115.77   
    33. A(C   4,C   5,O   6)          126.38  0.004502   -0.61    125.77   
    34. A(O   6,C   5,H  12)          119.58 -0.004026    0.58    120.16   
    35. A(C   4,C   5,H  12)          114.03 -0.000483    0.06    114.09   
    36. D(C   3,C   2,C   1,H  14)      0.68  0.000267   -0.57      0.10   
    37. D(H   9,C   2,C   1,H  14)    179.12 -0.000518    0.91    180.03   
    38. D(C   3,C   2,C   1,H   8)   -178.90  0.000710   -1.16   -180.07   
    39. D(H   9,C   2,C   1,H   8)     -0.46 -0.000076    0.32     -0.14   
    40. D(C   2,C   3,C   0,H  13)      1.02  0.000143   -0.16      0.86   
    41. D(C   4,C   3,C   0,H   7)     -0.72  0.000106   -0.19     -0.90   
    42. D(C   4,C   3,C   2,C   1)   -178.12 -0.000886    2.15   -175.97   
    43. D(C   0,C   3,C   2,C   1)      0.71 -0.000787    1.98      2.68   
    44. D(C   0,C   3,C   2,H   9)   -177.75  0.000022    0.50   -177.25   
    45. D(C   4,C   3,C   2,H   9)      3.42 -0.000078    0.68      4.10   
    46. D(C   4,C   3,C   0,H  13)    179.80  0.000212   -0.34    179.47   
    47. D(C   2,C   3,C   0,H   7)   -179.50  0.000037   -0.01   -179.51   
    48. D(H  10,C   4,C   3,C   0)   -123.07  0.000056    1.43   -121.64   
    49. D(C   5,C   4,C   3,C   2)    -65.73 -0.001305    1.59    -64.14   
    50. D(C   5,C   4,C   3,C   0)    115.40 -0.001357    1.75    117.15   
    51. D(H  11,C   4,C   3,C   2)    173.50  0.000269    0.95    174.45   
    52. D(H  11,C   4,C   3,C   0)     -5.37  0.000218    1.11     -4.27   
    53. D(H  10,C   4,C   3,C   2)     55.81  0.000107    1.27     57.07   
    54. D(H  12,C   5,C   4,H  11)    -52.74 -0.001517    2.56    -50.18   
    55. D(H  12,C   5,C   4,H  10)     61.29  0.000926    1.67     62.96   
    56. D(H  12,C   5,C   4,C   3)   -175.95 -0.000917    2.07   -173.87   
    57. D(O   6,C   5,C   4,H  11)    128.25 -0.000979    0.31    128.56   
    58. D(O   6,C   5,C   4,H  10)   -117.72  0.001464   -0.58   -118.30   
    59. D(O   6,C   5,C   4,C   3)      5.05 -0.000379   -0.18      4.87   
    ----------------------------------------------------------------------------

         *************************************************************
         *                GEOMETRY OPTIMIZATION CYCLE   2            *
         *************************************************************
---------------------------------
CARTESIAN COORDINATES (ANGSTROEM)
---------------------------------
  C      0.733383    1.419894   -0.124717
  C      1.578395   -1.480524    0.203100
  C      0.356013   -0.975813    0.432204
  C     -0.069375    0.429592    0.303941
  C     -1.494444    0.740070    0.717973
  C     -2.580227    0.081758   -0.111284
  O     -2.402621   -0.719545   -1.002994
  H      0.377168    2.450610   -0.196741
  H      1.767430   -2.548142    0.336188
  H     -0.421293   -1.678609    0.749743
  H     -1.666016    0.431673    1.768133
  H     -1.686295    1.826960    0.680227
  H     -3.618368    0.413783    0.148500
  H      1.769233    1.248414   -0.425667
  H      2.425916   -0.869220   -0.116606

----------------------------
CARTESIAN COORDINATES (A.U.)
----------------------------
  NO LB      ZA    FRAG     MASS         X           Y           Z
   0 C     6.0000    0    12.011    1.385893    2.683211   -0.235681
   1 C     6.0000    0    12.011    2.982735   -2.797786    0.383804
   2 C     6.0000    0    12.011    0.672768   -1.844019    0.816746
   3 C     6.0000    0    12.011   -0.131100    0.811811    0.574366
   4 C     6.0000    0    12.011   -2.824090    1.398529    1.356772
   5 C     6.0000    0    12.011   -4.875923    0.154501   -0.210296
   6 O     8.0000    0    15.999   -4.540295   -1.359744   -1.895385
   7 H     1.0000    0     1.008    0.712745    4.630981   -0.371786
   8 H     1.0000    0     1.008    3.339958   -4.815290    0.635304
   9 H     1.0000    0     1.008   -0.796129   -3.172112    1.416808
  10 H     1.0000    0     1.008   -3.148313    0.815744    3.341288
  11 H     1.0000    0     1.008   -3.186636    3.452454    1.285442
  12 H     1.0000    0     1.008   -6.837725    0.781937    0.280623
  13 H     1.0000    0     1.008    3.343366    2.359161   -0.804394
  14 H     1.0000    0     1.008    4.584316   -1.642588   -0.220354

--------------------------------
INTERNAL COORDINATES (ANGSTROEM)
--------------------------------
 C      0   0   0     0.000000000000     0.00000000     0.00000000
 C      1   0   0     3.038739524465     0.00000000     0.00000000
 C      2   1   0     1.342177372419    53.57515153     0.00000000
 C      1   2   3     1.344941126050    55.16571327     1.29947203
 C      4   1   2     1.516126654401   119.81995856   177.46065427
 C      5   4   1     1.516563857590   115.76840284   117.14676748
 O      6   5   4     1.211932162455   125.76105277     4.86469636
 H      1   2   3     1.092909513698   176.29425273    23.46083622
 H      2   1   3     1.092361204991   173.78657297     9.27258597
 H      3   2   1     1.094969735630   117.04380859   178.70336955
 H      5   4   1     1.107872777229   110.32950475   238.36141863
 H      5   4   1     1.104337688520   110.82443949   355.73427846
 H      6   5   4     1.120475040285   114.07521706   186.12489413
 H      1   2   3     1.092228038618    67.42732159   183.13229411
 H      2   1   3     1.092792731186    69.52318773   181.18636073

---------------------------
INTERNAL COORDINATES (A.U.)
---------------------------
 C      0   0   0     0.000000000000     0.00000000     0.00000000
 C      1   0   0     5.742385493562     0.00000000     0.00000000
 C      2   1   0     2.536347657018    53.57515153     0.00000000
 C      1   2   3     2.541570394483    55.16571327     1.29947203
 C      4   1   2     2.865064161157   119.81995856   177.46065427
 C      5   4   1     2.865890355449   115.76840284   117.14676748
 O      6   5   4     2.290219879931   125.76105277     4.86469636
 H      1   2   3     2.065299670046   176.29425273    23.46083622
 H      2   1   3     2.064263516754   173.78657297     9.27258597
 H      3   2   1     2.069192925273   117.04380859   178.70336955
 H      5   4   1     2.093576140189   110.32950475   238.36141863
 H      5   4   1     2.086895790671   110.82443949   355.73427846
 H      6   5   4     2.117390966032   114.07521706   186.12489413
 H      1   2   3     2.064011868778    67.42732159   183.13229411
 H      2   1   3     2.065078983081    69.52318773   181.18636073



           ************************************************************
           *        Program running with 2 parallel MPI-processes     *
           *              working on a common directory               *
           ************************************************************
 One Electron integrals                  ... done
 Pre-screening matrix                    ... done


           ************************************************************
           *        Program running with 2 parallel MPI-processes     *
           *              working on a common directory               *
           ************************************************************

Diagonalization of the overlap matrix:
Smallest eigenvalue                        ... 1.509e-03
Time for diagonalization                   ...    0.007 sec
Threshold for overlap eigenvalues          ... 1.000e-08
Number of eigenvalues below threshold      ... 0
Time for construction of square roots      ...    0.362 sec
Total time needed                          ...    0.369 sec

-------------------
DFT GRID GENERATION
-------------------

General Integration Accuracy     IntAcc      ...  4.340
Radial Grid Type                 RadialGrid  ... Gauss-Chebyshev
Angular Grid (max. acc.)         AngularGrid ... Lebedev-110
Angular grid pruning method      GridPruning ... 3 (G Style)
Weight generation scheme         WeightScheme... Becke
Basis function cutoff            BFCut       ...    1.0000e-11
Integration weight cutoff        WCut        ...    1.0000e-14
Grids for H and He will be reduced by one unit

# of grid points (after initial pruning)     ...  18004 (   0.1 sec)
# of grid points (after weights+screening)   ...  16801 (   0.0 sec)
nearest neighbour list constructed           ...    0.0 sec
Grid point re-assignment to atoms done       ...    0.0 sec
Grid point division into batches done        ...    0.0 sec
Reduced shell lists constructed in    0.1 sec

Total number of grid points                  ...    16801
Total number of batches                      ...      270
Average number of points per batch           ...       62
Average number of grid points per atom       ...     1120
Average number of shells per batch           ...    56.26 (85.24%)
Average number of basis functions per batch  ...   115.95 (84.02%)
Average number of large shells per batch     ...    45.09 (80.15%)
Average number of large basis fcns per batch ...    92.72 (79.97%)
Maximum spatial batch extension              ...  19.88, 15.24, 16.64 au
Average spatial batch extension              ...   1.42,  1.37,  1.49 au

Time for grid setup =    1.090 sec

--------------------
COSX GRID GENERATION
--------------------

General Integration Accuracy     IntAcc      ...  3.340
Radial Grid Type                 RadialGrid  ... Gauss-Chebyshev
Angular Grid (max. acc.)         AngularGrid ... Lebedev-50
Angular grid pruning method      GridPruning ... 3 (G Style)
Weight generation scheme         WeightScheme... Becke
Basis function cutoff            BFCut       ...    1.0000e-11
Integration weight cutoff        WCut        ...    1.0000e-14
Grids for H and He will be reduced by one unit

# of grid points (after initial pruning)     ...   6620 (   0.0 sec)
# of grid points (after weights+screening)   ...   6215 (   0.0 sec)
nearest neighbour list constructed           ...    0.0 sec
Grid point re-assignment to atoms done       ...    0.0 sec
Grid point division into batches done        ...    0.0 sec
Reduced shell lists constructed in    0.1 sec

Total number of grid points                  ...     6215
Total number of batches                      ...      104
Average number of points per batch           ...       59
Average number of grid points per atom       ...      414
Average number of shells per batch           ...    58.49 (88.62%)
Average number of basis functions per batch  ...   121.02 (87.69%)
Average number of large shells per batch     ...    47.57 (81.32%)
Average number of large basis fcns per batch ...    97.98 (80.96%)
Maximum spatial batch extension              ...  14.72, 13.95, 19.88 au
Average spatial batch extension              ...   1.75,  1.75,  2.12 au

Overlap Fitting                  UseSFitting ... on
Constructing numerical overlap ... done (      0.0 sec)
Inverting numerical overlap    ... done (      0.0 sec)
Obtaining analytic overlap     ... done (      0.2 sec)
Final contraction and storage  ... done (      0.4 sec)


General Integration Accuracy     IntAcc      ...  3.670
Radial Grid Type                 RadialGrid  ... Gauss-Chebyshev
Angular Grid (max. acc.)         AngularGrid ... Lebedev-50
Angular grid pruning method      GridPruning ... 3 (G Style)
Weight generation scheme         WeightScheme... Becke
Basis function cutoff            BFCut       ...    1.0000e-11
Integration weight cutoff        WCut        ...    1.0000e-14
Grids for H and He will be reduced by one unit

# of grid points (after initial pruning)     ...   8454 (   0.1 sec)
# of grid points (after weights+screening)   ...   7924 (   0.0 sec)
nearest neighbour list constructed           ...    0.0 sec
Grid point re-assignment to atoms done       ...    0.0 sec
Grid point division into batches done        ...    0.0 sec
Reduced shell lists constructed in    0.1 sec

Total number of grid points                  ...     7924
Total number of batches                      ...      133
Average number of points per batch           ...       59
Average number of grid points per atom       ...      528
Average number of shells per batch           ...    58.10 (88.03%)
Average number of basis functions per batch  ...   119.90 (86.88%)
Average number of large shells per batch     ...    47.15 (81.14%)
Average number of large basis fcns per batch ...    96.74 (80.68%)
Maximum spatial batch extension              ...  14.80, 14.92, 22.25 au
Average spatial batch extension              ...   1.68,  1.63,  1.96 au

Overlap Fitting                  UseSFitting ... on
Constructing numerical overlap ... done (      0.0 sec)
Inverting numerical overlap    ... done (      0.0 sec)
Obtaining analytic overlap     ... done (      0.0 sec)
Final contraction and storage  ... done (      0.3 sec)


General Integration Accuracy     IntAcc      ...  4.010
Radial Grid Type                 RadialGrid  ... Gauss-Chebyshev
Angular Grid (max. acc.)         AngularGrid ... Lebedev-110
Angular grid pruning method      GridPruning ... 3 (G Style)
Weight generation scheme         WeightScheme... Becke
Basis function cutoff            BFCut       ...    1.0000e-11
Integration weight cutoff        WCut        ...    1.0000e-14
Grids for H and He will be reduced by one unit

# of grid points (after initial pruning)     ...  15574 (   0.0 sec)
# of grid points (after weights+screening)   ...  14555 (   0.0 sec)
nearest neighbour list constructed           ...    0.0 sec
Grid point re-assignment to atoms done       ...    0.0 sec
Grid point division into batches done        ...    0.0 sec
Reduced shell lists constructed in    0.1 sec

Total number of grid points                  ...    14555
Total number of batches                      ...      235
[...]
ORBITAL ENERGIES
----------------

  NO   OCC          E(Eh)            E(eV) 
   0   2.0000     -19.145708      -520.9812 
   1   2.0000     -10.282647      -279.8051 
   2   2.0000     -10.207596      -277.7628 
   3   2.0000     -10.203747      -277.6581 
   4   2.0000     -10.191407      -277.3223 
   5   2.0000     -10.185190      -277.1531 
   6   2.0000     -10.183980      -277.1202 
   7   2.0000      -1.052912       -28.6512 
   8   2.0000      -0.827128       -22.5073 
   9   2.0000      -0.756512       -20.5857 
  10   2.0000      -0.714020       -19.4295 
  11   2.0000      -0.618749       -16.8370 
  12   2.0000      -0.574594       -15.6355 
  13   2.0000      -0.514717       -14.0062 
  14   2.0000      -0.483903       -13.1677 
  15   2.0000      -0.478438       -13.0189 
  16   2.0000      -0.454876       -12.3778 
  17   2.0000      -0.436625       -11.8812 
  18   2.0000      -0.418607       -11.3909 
  19   2.0000      -0.409732       -11.1494 
  20   2.0000      -0.377834       -10.2814 
  21   2.0000      -0.358654        -9.7595 
  22   2.0000      -0.341424        -9.2906 
  23   2.0000      -0.301883        -8.2147 
  24   2.0000      -0.258968        -7.0469 
  25   2.0000      -0.236351        -6.4314 
  26   0.0000      -0.027811        -0.7568 
  27   0.0000      -0.021580        -0.5872 
  28   0.0000       0.040655         1.1063 
  29   0.0000       0.071265         1.9392 
  30   0.0000       0.091992         2.5032 
  31   0.0000       0.098413         2.6779 
  32   0.0000       0.106987         2.9113 
  33   0.0000       0.112062         3.0494 
  34   0.0000       0.140635         3.8269 
  35   0.0000       0.154671         4.2088 
  36   0.0000       0.165897         4.5143 
  37   0.0000       0.201227         5.4757 
  38   0.0000       0.266248         7.2450 
  39   0.0000       0.290161         7.8957 
  40   0.0000       0.296792         8.0761 
  41   0.0000       0.310722         8.4552 
  42   0.0000       0.354158         9.6371 
  43   0.0000       0.412183        11.2161 
  44   0.0000       0.435571        11.8525 
  45   0.0000       0.462079        12.5738 
  46   0.0000       0.466261        12.6876 
  47   0.0000       0.486172        13.2294 
  48   0.0000       0.490243        13.3402 
  49   0.0000       0.524938        14.2843 
  50   0.0000       0.532556        14.4916 
  51   0.0000       0.535571        14.5736 
  52   0.0000       0.549966        14.9653 
  53   0.0000       0.560596        15.2546 
  54   0.0000       0.574066        15.6211 
  55   0.0000       0.601326        16.3629 
  56   0.0000       0.609449        16.5839 
  57   0.0000       0.629643        17.1335 
  58   0.0000       0.641156        17.4468 
  59   0.0000       0.656862        17.8741 
  60   0.0000       0.665386        18.1061 
  61   0.0000       0.680464        18.5164 
  62   0.0000       0.698943        19.0192 
  63   0.0000       0.702341        19.1117 
  64   0.0000       0.741112        20.1667 
  65   0.0000       0.789339        21.4790 
  66   0.0000       0.790908        21.5217 
  67   0.0000       0.836535        22.7633 
  68   0.0000       0.868501        23.6331 
  69   0.0000       0.877488        23.8777 
  70   0.0000       0.907386        24.6912 
  71   0.0000       0.945403        25.7257 
  72   0.0000       0.979729        26.6598 
  73   0.0000       0.986774        26.8515 
  74   0.0000       1.022652        27.8278 
  75   0.0000       1.029945        28.0262 
  76   0.0000       1.060762        28.8648 
  77   0.0000       1.104818        30.0636 
  78   0.0000       1.121637        30.5213 
  79   0.0000       1.134912        30.8825 
  80   0.0000       1.152318        31.3562 
  81   0.0000       1.158874        31.5346 
  82   0.0000       1.234958        33.6049 
  83   0.0000       1.256044        34.1787 
  84   0.0000       1.273133        34.6437 
  85   0.0000       1.372128        37.3375 
  86   0.0000       1.410600        38.3844 
  87   0.0000       1.434034        39.0220 
  88   0.0000       1.446082        39.3499 
  89   0.0000       1.472149        40.0592 
  90   0.0000       1.491924        40.5973 
  91   0.0000       1.502197        40.8769 
  92   0.0000       1.515748        41.2456 
  93   0.0000       1.540162        41.9099 
  94   0.0000       1.583582        43.0915 
  95   0.0000       1.586234        43.1636 
  96   0.0000       1.615350        43.9559 
  97   0.0000       1.634761        44.4841 
  98   0.0000       1.640820        44.6490 
  99   0.0000       1.665800        45.3287 
 100   0.0000       1.672901        45.5219 
 101   0.0000       1.685449        45.8634 
 102   0.0000       1.701543        46.3013 
 103   0.0000       1.716340        46.7040 
 104   0.0000       1.743159        47.4338 
 105   0.0000       1.777766        48.3755 
 106   0.0000       1.822340        49.5884 
 107   0.0000       1.832918        49.8762 
 108   0.0000       1.867794        50.8253 
 109   0.0000       1.878815        51.1251 
 110   0.0000       1.897966        51.6463 
 111   0.0000       1.939757        52.7835 
 112   0.0000       1.940801        52.8119 
 113   0.0000       1.943995        52.8988 
 114   0.0000       1.985457        54.0270 
 115   0.0000       2.054066        55.8940 
 116   0.0000       2.104699        57.2718 
 117   0.0000       2.174293        59.1655 
 118   0.0000       2.194840        59.7246 
 119   0.0000       2.250188        61.2307 
 120   0.0000       2.259380        61.4809 
 121   0.0000       2.274175        61.8834 
 122   0.0000       2.290337        62.3232 
 123   0.0000       2.353528        64.0428 
 124   0.0000       2.401162        65.3390 
 125   0.0000       2.411519        65.6208 
 126   0.0000       2.441285        66.4307 
 127   0.0000       2.546665        69.2983 
 128   0.0000       2.591379        70.5150 
 129   0.0000       2.652441        72.1766 
 130   0.0000       2.709182        73.7206 
 131   0.0000       2.751491        74.8719 
 132   0.0000       2.789550        75.9075 
 133   0.0000       2.822773        76.8116 
 134   0.0000       3.088619        84.0456 
 135   0.0000       3.091455        84.1228 
 136   0.0000       3.346309        91.0577 
 137   0.0000       3.445635        93.7605 

                    ********************************
                    * MULLIKEN POPULATION ANALYSIS *
                    ********************************

-----------------------
MULLIKEN ATOMIC CHARGES
-----------------------
   0 C :    0.055313
   1 C :    0.032599
   2 C :   -0.032059
   3 C :   -0.120472
   4 C :   -0.010775
   5 C :    0.155979
   6 O :   -0.181364
   7 H :    0.003585
   8 H :    0.017420
   9 H :   -0.006308
  10 H :    0.044971
  11 H :    0.031852
  12 H :   -0.015265
  13 H :    0.014230
  14 H :    0.010294
Sum of atomic charges:   -0.0000000

--------------------------------
MULLIKEN REDUCED ORBITAL CHARGES
--------------------------------
  0 C s       :     3.028550  s :     3.028550
      pz      :     1.012192  p :     2.873924
      px      :     0.928513
      py      :     0.933219
      dz2     :     0.004188  d :     0.042213
      dxz     :     0.004951
      dyz     :     0.005823
      dx2y2   :     0.017572
      dxy     :     0.009678
  1 C s       :     3.050120  s :     3.050120
      pz      :     0.992367  p :     2.874106
      px      :     0.981975
      py      :     0.899764
      dz2     :     0.001465  d :     0.043175
      dxz     :     0.007744
      dyz     :     0.001633
      dx2y2   :     0.014072
      dxy     :     0.018261
  2 C s       :     3.140311  s :     3.140311
      pz      :     0.962250  p :     2.827432
      px      :     0.936123
      py      :     0.929059
      dz2     :     0.003999  d :     0.064317
      dxz     :     0.008419
      dyz     :     0.007942
      dx2y2   :     0.018048
      dxy     :     0.025910
  3 C s       :     3.162263  s :     3.162263
      pz      :     0.941568  p :     2.872957
      px      :     0.953271
      py      :     0.978118
      dz2     :     0.009568  d :     0.085252
      dxz     :     0.011960
      dyz     :     0.014530
      dx2y2   :     0.027030
      dxy     :     0.022164
  4 C s       :     3.033221  s :     3.033221
      pz      :     1.007245  p :     2.916528
      px      :     0.941306
      py      :     0.967977
      dz2     :     0.012492  d :     0.061026
      dxz     :     0.014324
      dyz     :     0.005566
      dx2y2   :     0.017250
      dxy     :     0.011394
  5 C s       :     3.129347  s :     3.129347
      pz      :     0.837243  p :     2.567870
      px      :     0.935201
      py      :     0.795425
      dz2     :     0.033403  d :     0.146805
      dxz     :     0.048331
      dyz     :     0.021424
      dx2y2   :     0.017501
      dxy     :     0.026146
  6 O s       :     3.750950  s :     3.750950
      pz      :     1.331480  p :     4.411665
      px      :     1.783385
      py      :     1.296800
      dz2     :     0.006104  d :     0.018749
      dxz     :     0.002848
      dyz     :     0.006334
      dx2y2   :     0.002082
      dxy     :     0.001381
  7 H s       :     0.966623  s :     0.966623
      pz      :     0.005959  p :     0.029792
      px      :     0.006419
      py      :     0.017414
  8 H s       :     0.952807  s :     0.952807
      pz      :     0.005974  p :     0.029773
      px      :     0.005791
      py      :     0.018008
  9 H s       :     0.977336  s :     0.977336
      pz      :     0.006280  p :     0.028972
      px      :     0.011892
      py      :     0.010799
 10 H s       :     0.926438  s :     0.926438
      pz      :     0.016141  p :     0.028591
      px      :     0.004653
      py      :     0.007797
 11 H s       :     0.939556  s :     0.939556
      pz      :     0.006307  p :     0.028592
      px      :     0.004631
      py      :     0.017653
 12 H s       :     0.990246  s :     0.990246
      pz      :     0.004757  p :     0.025019
      px      :     0.016272
      py      :     0.003990
 13 H s       :     0.955918  s :     0.955918
      pz      :     0.008315  p :     0.029852
      px      :     0.015915
      py      :     0.005622
 14 H s       :     0.959983  s :     0.959983
      pz      :     0.006370  p :     0.029724
      px      :     0.012177
      py      :     0.011177


                     *******************************
                     * LOEWDIN POPULATION ANALYSIS *
                     *******************************

----------------------
LOEWDIN ATOMIC CHARGES
----------------------
   0 C :   -0.040934
   1 C :   -0.038670
   2 C :   -0.025127
   3 C :   -0.030203
   4 C :   -0.066174
   5 C :   -0.018704
   6 O :    0.001753
   7 H :    0.020932
   8 H :    0.026329
   9 H :    0.029389
  10 H :    0.050950
  11 H :    0.048344
  12 H :   -0.004685
  13 H :    0.024775
  14 H :    0.022027

-------------------------------
LOEWDIN REDUCED ORBITAL CHARGES
-------------------------------
  0 C s       :     2.844522  s :     2.844522
      pz      :     0.996804  p :     3.054014
      px      :     1.022075
      py      :     1.035134
      dz2     :     0.013394  d :     0.142398
      dxz     :     0.019293
      dyz     :     0.017026
      dx2y2   :     0.057525
      dxy     :     0.035160
  1 C s       :     2.847144  s :     2.847144
      pz      :     0.964157  p :     3.047828
      px      :     1.057280
      py      :     1.026391
      dz2     :     0.010661  d :     0.143698
      dxz     :     0.019433
      dyz     :     0.004403
      dx2y2   :     0.048962
      dxy     :     0.060240
  2 C s       :     2.828241  s :     2.828241
      pz      :     0.931448  p :     3.000620
      px      :     1.063421
      py      :     1.005750
      dz2     :     0.014056  d :     0.196266
      dxz     :     0.022333
      dyz     :     0.019613
      dx2y2   :     0.058872
      dxy     :     0.081391
  3 C s       :     2.816646  s :     2.816646
      pz      :     0.937074  p :     2.972893
      px      :     0.990355
      py      :     1.045464
      dz2     :     0.025155  d :     0.240665
      dxz     :     0.031004
      dyz     :     0.039014
      dx2y2   :     0.080534
      dxy     :     0.064959
  4 C s       :     2.809164  s :     2.809164
      pz      :     1.031926  p :     3.073967
      px      :     1.010812
      py      :     1.031229
      dz2     :     0.038929  d :     0.183043
      dxz     :     0.042222
      dyz     :     0.018023
      dx2y2   :     0.053597
      dxy     :     0.030271
  5 C s       :     2.881844  s :     2.881844
      pz      :     0.914355  p :     2.756977
      px      :     1.017140
      py      :     0.825482
      dz2     :     0.073337  d :     0.379883
      dxz     :     0.132773
      dyz     :     0.062216
      dx2y2   :     0.040947
      dxy     :     0.070610
  6 O s       :     3.495768  s :     3.495768
      pz      :     1.401437  p :     4.470057
      px      :     1.745088
      py      :     1.323531
      dz2     :     0.009019  d :     0.032423
      dxz     :     0.005098
      dyz     :     0.012758
      dx2y2   :     0.003042
      dxy     :     0.002506
  7 H s       :     0.897433  s :     0.897433
      pz      :     0.018257  p :     0.081635
      px      :     0.018914
      py      :     0.044464
  8 H s       :     0.892718  s :     0.892718
      pz      :     0.018167  p :     0.080952
      px      :     0.015869
      py      :     0.046916
  9 H s       :     0.889948  s :     0.889948
      pz      :     0.017970  p :     0.080663
      px      :     0.031599
      py      :     0.031095
 10 H s       :     0.870693  s :     0.870693
      pz      :     0.042535  p :     0.078357
      px      :     0.015865
      py      :     0.019957
 11 H s       :     0.873675  s :     0.873675
      pz      :     0.016795  p :     0.077981
      px      :     0.015472
      py      :     0.045714
 12 H s       :     0.930630  s :     0.930630
      pz      :     0.015103  p :     0.074055
      px      :     0.046084
      py      :     0.012868
 13 H s       :     0.892558  s :     0.892558
      pz      :     0.023791  p :     0.082667
      px      :     0.042499
      py      :     0.016377
 14 H s       :     0.896295  s :     0.896295
      pz      :     0.019222  p :     0.081678
      px      :     0.031353
      py      :     0.031103


                      *****************************
                      * MAYER POPULATION ANALYSIS *
                      *****************************

  NA   - Mulliken gross atomic population
  ZA   - Total nuclear charge
  QA   - Mulliken gross atomic charge
  VA   - Mayer's total valence
  BVA  - Mayer's bonded valence
  FA   - Mayer's free valence

  ATOM       NA         ZA         QA         VA         BVA        FA
  0 C      5.9447     6.0000     0.0553     3.9552     3.9552     0.0000
  1 C      5.9674     6.0000     0.0326     3.9734     3.9734    -0.0000
  2 C      6.0321     6.0000    -0.0321     4.0881     4.0881     0.0000
  3 C      6.1205     6.0000    -0.1205     4.2988     4.2988    -0.0000
  4 C      6.0108     6.0000    -0.0108     3.8756     3.8756    -0.0000
  5 C      5.8440     6.0000     0.1560     4.1850     4.1850    -0.0000
  6 O      8.1814     8.0000    -0.1814     2.3455     2.3455    -0.0000
  7 H      0.9964     1.0000     0.0036     0.9762     0.9762    -0.0000
  8 H      0.9826     1.0000     0.0174     0.9703     0.9703    -0.0000
  9 H      1.0063     1.0000    -0.0063     0.9974     0.9974     0.0000
 10 H      0.9550     1.0000     0.0450     0.9729     0.9729     0.0000
 11 H      0.9681     1.0000     0.0319     0.9835     0.9835    -0.0000
 12 H      1.0153     1.0000    -0.0153     0.9646     0.9646    -0.0000
 13 H      0.9858     1.0000     0.0142     0.9812     0.9812     0.0000
 14 H      0.9897     1.0000     0.0103     0.9834     0.9834    -0.0000

  Mayer bond orders larger than 0.1
B(  0-C ,  3-C ) :   1.9968 B(  0-C ,  7-H ) :   0.9140 B(  0-C , 13-H ) :   0.9201 
B(  1-C ,  2-C ) :   2.0024 B(  1-C ,  8-H ) :   0.9353 B(  1-C , 14-H ) :   0.9366 
B(  2-C ,  3-C ) :   1.0725 B(  2-C ,  9-H ) :   0.9345 B(  3-C ,  4-C ) :   1.0558 
B(  4-C ,  5-C ) :   0.9972 B(  4-C , 10-H ) :   0.9058 B(  4-C , 11-H ) :   0.9132 
B(  5-C ,  6-O ) :   2.2260 B(  5-C , 12-H ) :   0.9141 

-------
TIMINGS
-------

Total SCF time: 0 days 0 hours 1 min 22 sec 

Total time                  ....      82.106 sec
Sum of individual times     ....      69.046 sec  ( 84.1%)

Fock matrix formation       ....      60.229 sec  ( 73.4%)
  Split-RI-J                ....       7.660 sec  ( 12.7% of F)
  Chain of spheres X        ....      18.414 sec  ( 30.6% of F)
  COS-X 1 center corr.      ....       0.000 sec  (  0.0% of F)
  XC integration            ....      15.716 sec  ( 26.1% of F)
    Basis function eval.    ....       0.892 sec  (  5.7% of XC)
    Density eval.           ....       0.387 sec  (  2.5% of XC)
    XC-Functional eval.     ....       0.138 sec  (  0.9% of XC)
    XC-Potential eval.      ....       0.667 sec  (  4.2% of XC)
Diagonalization             ....       0.015 sec  (  0.0%)
Density matrix formation    ....       0.083 sec  (  0.1%)
Population analysis         ....       0.615 sec  (  0.7%)
Initial guess               ....       0.055 sec  (  0.1%)
Orbital Transformation      ....       0.000 sec  (  0.0%)
Orbital Orthonormalization  ....       0.003 sec  (  0.0%)
DIIS solution               ....       0.001 sec  (  0.0%)
SOSCF solution              ....       1.134 sec  (  1.4%)
Grid generation             ....       6.916 sec  (  8.4%)

-------------------------   --------------------
FINAL SINGLE POINT ENERGY      -308.444387208990
-------------------------   --------------------

                                *** OPTIMIZATION RUN DONE ***

                            ***************************************
                            *     ORCA property calculations      *
                            ***************************************

                                    ---------------------
                                    Active property flags
                                    ---------------------
   (+) Dipole Moment


------------------------------------------------------------------------------
                       ORCA ELECTRIC PROPERTIES CALCULATION
------------------------------------------------------------------------------

Dipole Moment Calculation                       ... on
Quadrupole Moment Calculation                   ... off
Polarizability Calculation                      ... off
GBWName                                         ... frag_11_c00001.gbw
Electron density file                           ... frag_11_c00001.scfp.tmp
The origin for moment calculation is the CENTER OF MASS  = (-1.173346, -0.106340  0.039990)

-------------
DIPOLE MOMENT
-------------
                                X             Y             Z
Electronic contribution:     -3.75422      -1.00170      -1.97399
Nuclear contribution   :      3.79976       1.48375       2.75174
                        -----------------------------------------
Total Dipole Moment    :      0.04554       0.48205       0.77775
                        -----------------------------------------
Magnitude (a.u.)       :      0.91615
Magnitude (Debye)      :      2.32867


Timings for individual modules:

Sum of individual times         ...      920.800 sec (=  15.347 min)
GTO integral calculation        ...       39.315 sec (=   0.655 min)   4.3 %
SCF iterations                  ...      779.876 sec (=  12.998 min)  84.7 %
SCF Gradient evaluation         ...       94.491 sec (=   1.575 min)  10.3 %
Geometry relaxation             ...        7.119 sec (=   0.119 min)   0.8 %
                             ****ORCA TERMINATED NORMALLY****
TOTAL RUN TIME: 0 days 0 hours 15 minutes 50 seconds 563 msec
