
                                 *****************
                                 * O   R   C   A *
                                 *****************

           --- An Ab Initio, DFT and Semiempirical electronic structure package ---

                  #######################################################
                  #                        -***-                        #
                  #  Department of molecular theory and spectroscopy    #
                  #              Directorship: Frank Neese              #
                  # Max Planck Institute for Chemical Energy Conversion #
                  #                  D-45470 Muelheim/Ruhr              #
                  #                       Germany                       #
                  #                                                     #
                  #                  All rights reserved                #
                  #                        -***-                        #
                  #######################################################


                         Program Version 4.0.1 -  RELEASE  -


 With contributions from (in alphabetic order):
   Daniel Aravena         : Magnetic Properties
   Michael Atanasov       : Ab Initio Ligand Field Theory
   Ute Becker             : Parallelization
   Martin Brehm           : Molecular dynamics
   Dmytro Bykov           : SCF Hessian
   Vijay G. Chilkuri      : MRCI spin determinant printing
   Dipayan Datta          : RHF DLPNO-CCSD density
   Achintya Kumar Dutta   : EOM-CC, STEOM-CC
   Dmitry Ganyushin       : Spin-Orbit,Spin-Spin,Magnetic field MRCI
   Yang Guo               : DLPNO-NEVPT2, CIM, IAO-localization
   Andreas Hansen         : Spin unrestricted coupled pair/coupled cluster methods
   Lee Huntington         : MR-EOM, pCC
   Robert Izsak           : Overlap fitted RIJCOSX, COSX-SCS-MP3, EOM
   Christian Kollmar      : KDIIS, OOCD, Brueckner-CCSD(T), CCSD density
   Simone Kossmann        : Meta GGA functionals, TD-DFT gradient, OOMP2, MP2 Hessian
   Martin Krupicka        : AUTO-CI
   Dagmar Lenk            : GEPOL surface
   Dimitrios Liakos       : Extrapolation schemes; parallel MDCI
   Dimitrios Manganas     : ROCIS; embedding schemes
   Dimitrios Pantazis     : SARC Basis sets
   Taras Petrenko         : DFT Hessian,TD-DFT gradient, ASA, ECA, R-Raman, ABS, FL, XAS/XES, NRVS
   Peter Pinski           : DLPNO-MP2
   Christoph Reimann      : Effective Core Potentials
   Marius Retegan         : Local ZFS, SOC
   Christoph Riplinger    : Optimizer, TS searches, QM/MM, DLPNO-CCSD(T), (RO)-DLPNO pert. Triples
   Tobias Risthaus        : Range-separated hybrids, TD-DFT gradient, RPA, STAB
   Michael Roemelt        : Restricted open shell CIS
   Masaaki Saitow         : Open-shell DLPNO
   Barbara Sandhoefer     : DKH picture change effects
   Kantharuban Sivalingam : CASSCF convergence, NEVPT2, FIC-MRCI
   Georgi Stoychev        : AutoAux
   Boris Wezisla          : Elementary symmetry handling
   Frank Wennmohs         : Technical directorship


 We gratefully acknowledge several colleagues who have allowed us to
 interface, adapt or use parts of their codes:
   Stefan Grimme, W. Hujo, H. Kruse,             : VdW corrections, initial TS optimization,
                  C. Bannwarth                     DFT functionals, gCP, sTDA/sTD-DF
   Ed Valeev                                     : LibInt (2-el integral package), F12 methods
   Garnet Chan, S. Sharma, J. Yang, R. Olivares  : DMRG
   Ulf Ekstrom                                   : XCFun DFT Library
   Mihaly Kallay                                 : mrcc  (arbitrary order and MRCC methods)
   Andreas Klamt, Michael Diedenhofen            : otool_cosmo (COSMO solvation model)
   Jiri Pittner, Ondrej Demel                    : Mk-CCSD
   Frank Weinhold                                : gennbo (NPA and NBO analysis)
   Christopher J. Cramer and Donald G. Truhlar   : smd solvation model


 Your calculation uses the libint2 library for the computation of 2-el integrals
 For citations please refer to: http://libint.valeyev.net

 This ORCA versions uses:
   CBLAS   interface :  Fast vector & matrix operations
   LAPACKE interface :  Fast linear algebra routines
   SCALAPACK package :  Parallel linear algebra routines


Your calculation utilizes the basis: cc-pVDZ 
       H, B-Ne : Obtained from the ccRepo (grant-hill.group.shef.ac.uk/ccrepo) Feb. 2017
                 T. H. Dunning, Jr., J. Chem. Phys. 90, 1007 (1989)
            He : Obtained from the ccRepo (grant-hill.group.shef.ac.uk/ccrepo) Feb. 2017
                 D. E. Woon, T. H. Dunning, Jr., J. Chem. Phys. 100, 2975 (1994)
  Li-Be, Na-Mg : Obtained from the ccRepo (grant-hill.group.shef.ac.uk/ccrepo) Feb. 2017
                 B. P. Prascher, D. E. Woon, K. A. Peterson, T. H. Dunning, Jr., A. K. Wilson, Theor. Chem. Acc. 128, 69 (2011)
         Al-Ar : Obtained from the ccRepo (grant-hill.group.shef.ac.uk/ccrepo) Feb. 2017
                 D. E. Woon, T. H. Dunning, Jr., J. Chem. Phys. 98, 1358 (1993)
            Ca : Obtained from the Peterson Research Group Website (tyr0.chem.wsu.edu/~kipeters) Feb. 2017
                 J. Koput, K. A. Peterson, J. Phys. Chem. 106, 9595 (2002)
         Sc-Zn : Obtained from the ccRepo (grant-hill.group.shef.ac.uk/ccrepo) Feb. 2017
                 N. B. Balabanov, K. A. Peterson, J. Chem. Phys. 123, 064107 (2005)
                 N. B. Balabanov, K. A. Peterson, J. Chem. Phys. 125, 074110 (2006)
         Ga-Kr : Obtained from the ccRepo (grant-hill.group.shef.ac.uk/ccrepo) Feb. 2017
                 A. K. Wilson, D. E. Woon, K. A. Peterson, T. H. Dunning, Jr., J. Chem. Phys. 110, 7667 (1999)

Your calculation utilizes the auxiliary basis: def2/J
   F. Weigend, Phys. Chem. Chem. Phys. 8, 1057 (2006).

================================================================================
                                        WARNINGS
                       Please study these warnings very carefully!
================================================================================

Warning: TCutStore was < 0. Adjusted to Thresh (uncritical)

WARNING: Geometry Optimization
  ===> : Switching off AutoStart
         For restart on a previous wavefunction, please use MOREAD

INFO   : the flag for use of LIBINT has been found!

================================================================================
                                       INPUT FILE
================================================================================
NAME = frag_11_c00002.com
|  1> %pal nprocs 2 end
|  2> %maxcore 1000
|  3> ! b3lyp TIGHTSCF
|  4> ! cc-pvdz def2/J RIJCOSX
|  5> ! Opt
|  6> 
|  7> %geom
|  8> maxiter 60
|  9> TolE 1e-4
| 10> TolRMSG 2e-3
| 11> TolMaxG 3e-3
| 12> TolRMSD 2e-2
| 13> TolMaxD 3e-2
| 14> end
| 15> 
| 16> *xyz 0 1
| 17> C 0.8245 1.2316 -0.142
| 18> C 2.1142 1.0499 -0.4556
| 19> C 0.2268 -1.0549 0.5909
| 20> C -0.1051 0.2302 0.3712
| 21> C -1.5027 0.7253 0.6818
| 22> C -2.6053 0.1195 -0.1725
| 23> O -2.469 -0.7648 -1.0115
| 24> H 0.4204 2.2312 -0.3021
| 25> H 2.7046 1.8755 -0.8417
| 26> H -0.5039 -1.7657 0.9678
| 27> H -1.7456 0.5036 1.728
| 28> H -1.5816 1.8121 0.5679
| 29> H -3.6105 0.5328 0.03
| 30> H 2.6213 0.0984 -0.348
| 31> H 1.2114 -1.4578 0.382
| 32> *
| 33> 
| 34> 
| 35>                          ****END OF INPUT****
================================================================================

                       *****************************
                       * Geometry Optimization Run *
                       *****************************

Geometry optimization settings:
Update method            Update   .... BFGS
Choice of coordinates    CoordSys .... Redundant Internals
Initial Hessian          InHess   .... Almoef's Model

Convergence Tolerances:
Energy Change            TolE     ....  1.0000e-04 Eh
Max. Gradient            TolMAXG  ....  3.0000e-03 Eh/bohr
RMS Gradient             TolRMSG  ....  2.0000e-03 Eh/bohr
Max. Displacement        TolMAXD  ....  3.0000e-02 bohr
RMS Displacement         TolRMSD  ....  2.0000e-02 bohr

------------------------------------------------------------------------------
                        ORCA OPTIMIZATION COORDINATE SETUP
------------------------------------------------------------------------------

The optimization will be done in new redundant internal coordinates
Making redundant internal coordinates   ...  (new redundants) done
Evaluating the initial hessian          ...  (Almloef) done
Evaluating the coordinates              ...  done
Calculating the B-matrix                .... done
Calculating the G-matrix                .... done
Diagonalizing the G-matrix              .... done
The first mode is                       ....   20
The number of degrees of freedom        ....   39

    -----------------------------------------------------------------
                    Redundant Internal Coordinates


    -----------------------------------------------------------------
         Definition                    Initial Value    Approx d2E/dq
    -----------------------------------------------------------------
      1. B(C   1,C   0)                  1.3397         0.751717   
      2. B(C   3,C   2)                  1.3453         0.736224   
      3. B(C   3,C   0)                  1.4596         0.483895   
      4. B(C   4,C   3)                  1.5149         0.394902   
      5. B(C   5,C   4)                  1.5207         0.386549   
      6. B(O   6,C   5)                  1.2266         1.020024   
      7. B(H   7,C   0)                  1.0900         0.360082   
      8. B(H   8,C   1)                  1.0859         0.365514   
      9. B(H   9,C   2)                  1.0868         0.364310   
     10. B(H  10,C   4)                  1.0967         0.351383   
     11. B(H  11,C   4)                  1.0956         0.352772   
     12. B(H  12,C   5)                  1.1056         0.340101   
     13. B(H  13,C   1)                  1.0835         0.368735   
     14. B(H  14,C   2)                  1.0842         0.367908   
     15. A(C   1,C   0,C   3)          127.0422         0.429781   
     16. A(C   1,C   0,H   7)          116.5451         0.364667   
     17. A(C   3,C   0,H   7)          116.4049         0.338509   
     18. A(H   8,C   1,H  13)          116.6461         0.292611   
     19. A(C   0,C   1,H  13)          123.1206         0.366153   
     20. A(C   0,C   1,H   8)          120.2329         0.365603   
     21. A(C   3,C   2,H  14)          123.2005         0.364709   
     22. A(H   9,C   2,H  14)          115.7441         0.292356   
     23. A(C   3,C   2,H   9)          121.0307         0.364097   
     24. A(C   0,C   3,C   4)          115.8140         0.383577   
     25. A(C   2,C   3,C   4)          120.4186         0.412930   
     26. A(C   0,C   3,C   2)          123.7570         0.428178   
     27. A(H  10,C   4,H  11)          106.4848         0.288791   
     28. A(C   5,C   4,H  11)          106.5320         0.325043   
     29. A(C   3,C   4,H  11)          111.6739         0.326188   
     30. A(C   5,C   4,H  10)          107.1455         0.324833   
     31. A(C   3,C   4,H  10)          109.5036         0.325977   
     32. A(C   3,C   4,C   5)          115.0585         0.368976   
     33. A(C   4,C   5,O   6)          126.2209         0.433200   
     34. A(O   6,C   5,H  12)          119.7255         0.378193   
     35. A(C   4,C   5,H  12)          114.0427         0.323097   
     36. D(H   8,C   1,C   0,H   7)      0.3712         0.040317   
     37. D(H  13,C   1,C   0,H   7)   -179.3951         0.040317   
     38. D(H   8,C   1,C   0,C   3)    179.3097         0.040317   
     39. D(H  13,C   1,C   0,C   3)     -0.4566         0.040317   
     40. D(C   2,C   3,C   0,H   7)    178.2864         0.015942   
     41. D(C   4,C   3,C   0,C   1)    178.1761         0.015942   
     42. D(C   4,C   3,C   2,H   9)      1.6689         0.038519   
     43. D(C   0,C   3,C   2,H   9)   -179.5529         0.038519   
     44. D(C   0,C   3,C   2,H  14)     -1.4379         0.038519   
     45. D(C   4,C   3,C   2,H  14)    179.7840         0.038519   
     46. D(C   4,C   3,C   0,H   7)     -2.8841         0.015942   
     47. D(C   2,C   3,C   0,C   1)     -0.6534         0.015942   
     48. D(H  10,C   4,C   3,C   0)   -123.6185         0.011587   
     49. D(C   5,C   4,C   3,C   2)    -65.4669         0.011587   
     50. D(C   5,C   4,C   3,C   0)    115.6616         0.011587   
     51. D(H  11,C   4,C   3,C   2)    172.9438         0.011587   
     52. D(H  11,C   4,C   3,C   0)     -5.9278         0.011587   
     53. D(H  10,C   4,C   3,C   2)     55.2531         0.011587   
     54. D(H  12,C   5,C   4,H  11)    -52.4801         0.011127   
     55. D(H  12,C   5,C   4,H  10)     61.1815         0.011127   
     56. D(H  12,C   5,C   4,C   3)   -176.8170         0.011127   
     57. D(O   6,C   5,C   4,H  11)    128.7335         0.011127   
     58. D(O   6,C   5,C   4,H  10)   -117.6048         0.011127   
     59. D(O   6,C   5,C   4,C   3)      4.3967         0.011127   
    -----------------------------------------------------------------

Number of atoms                         .... 15
Number of degrees of freedom            .... 59

         *************************************************************
         *                GEOMETRY OPTIMIZATION CYCLE   1            *
         *************************************************************
---------------------------------
CARTESIAN COORDINATES (ANGSTROEM)
---------------------------------
  C      0.824500    1.231600   -0.142000
  C      2.114200    1.049900   -0.455600
  C      0.226800   -1.054900    0.590900
  C     -0.105100    0.230200    0.371200
  C     -1.502700    0.725300    0.681800
  C     -2.605300    0.119500   -0.172500
  O     -2.469000   -0.764800   -1.011500
  H      0.420400    2.231200   -0.302100
  H      2.704600    1.875500   -0.841700
  H     -0.503900   -1.765700    0.967800
  H     -1.745600    0.503600    1.728000
  H     -1.581600    1.812100    0.567900
  H     -3.610500    0.532800    0.030000
  H      2.621300    0.098400   -0.348000
  H      1.211400   -1.457800    0.382000

----------------------------
CARTESIAN COORDINATES (A.U.)
----------------------------
  NO LB      ZA    FRAG     MASS         X           Y           Z
   0 C     6.0000    0    12.011    1.558079    2.327387   -0.268341
   1 C     6.0000    0    12.011    3.995259    1.984023   -0.860959
   2 C     6.0000    0    12.011    0.428590   -1.993472    1.116639
   3 C     6.0000    0    12.011   -0.198610    0.435015    0.701466
   4 C     6.0000    0    12.011   -2.839691    1.370618    1.288415
   5 C     6.0000    0    12.011   -4.923303    0.225822   -0.325978
   6 O     8.0000    0    15.999   -4.665734   -1.445263   -1.911458
   7 H     1.0000    0     1.008    0.794441    4.216357   -0.570886
   8 H     1.0000    0     1.008    5.110953    3.544181   -1.590582
   9 H     1.0000    0     1.008   -0.952233   -3.336689    1.828877
  10 H     1.0000    0     1.008   -3.298706    0.951666    3.265447
  11 H     1.0000    0     1.008   -2.988791    3.424373    1.073175
  12 H     1.0000    0     1.008   -6.822856    1.006846    0.056692
  13 H     1.0000    0     1.008    4.953539    0.185949   -0.657625
  14 H     1.0000    0     1.008    2.289214   -2.754843    0.721875

--------------------------------
INTERNAL COORDINATES (ANGSTROEM)
--------------------------------
 C      0   0   0     0.000000000000     0.00000000     0.00000000
 C      1   0   0     1.339658889419     0.00000000     0.00000000
 C      1   2   0     2.474362534068   100.16897351     0.00000000
 C      3   1   2     1.345328104962    29.36841309   179.47014765
 C      4   3   1     1.514886837358   120.41860623   181.22187907
 C      5   4   3     1.520706707423   115.05850766   294.53313222
 O      6   5   4     1.226574571724   126.22090176     4.39668427
 H      1   2   3     1.090013293497   116.54513082   181.36157555
 H      2   1   3     1.085937719209   120.23290120   179.00965825
 H      3   1   2     1.086836114601   150.39761648   180.24568493
 H      5   4   3     1.096670296853   109.50363212    55.25307629
 H      5   4   3     1.095596942310   111.67389357   172.94377256
 H      6   5   4     1.105554241094   114.04273347   183.18304012
 H      2   1   3     1.083549915786   123.12056451   359.24335060
 H      3   1   2     1.084160864448    93.83951059   358.26430376

---------------------------
INTERNAL COORDINATES (A.U.)
---------------------------
 C      0   0   0     0.000000000000     0.00000000     0.00000000
 C      1   0   0     2.531588413875     0.00000000     0.00000000
 C      1   2   0     4.675867545424   100.16897351     0.00000000
 C      3   1   2     2.542301678645    29.36841309   179.47014765
 C      4   3   1     2.862721246488   120.41860623   181.22187907
 C      5   4   3     2.873719207046   115.05850766   294.53313222
 O      6   5   4     2.317890023390   126.22090176     4.39668427
 H      1   2   3     2.059826607043   116.54513082   181.36157555
 H      2   1   3     2.052124887799   120.23290120   179.00965825
 H      3   1   2     2.053822609050   150.39761648   180.24568493
 H      5   4   3     2.072406520259   109.50363212    55.25307629
 H      5   4   3     2.070378174128   111.67389357   172.94377256
 H      6   5   4     2.089194741862   114.04273347   183.18304012
 H      2   1   3     2.047612593269   123.12056451   359.24335060
 H      3   1   2     2.048767118921    93.83951059   358.26430376

---------------------
BASIS SET INFORMATION
---------------------
There are 3 groups of distinct atoms

 Group   1 Type C   : 17s4p1d contracted to 3s2p1d pattern {881/31/1}
 Group   2 Type O   : 17s4p1d contracted to 3s2p1d pattern {881/31/1}
 Group   3 Type H   : 4s1p contracted to 2s1p pattern {31/1}

Atom   0C    basis set group =>   1
Atom   1C    basis set group =>   1
Atom   2C    basis set group =>   1
Atom   3C    basis set group =>   1
Atom   4C    basis set group =>   1
Atom   5C    basis set group =>   1
Atom   6O    basis set group =>   2
Atom   7H    basis set group =>   3
Atom   8H    basis set group =>   3
Atom   9H    basis set group =>   3
Atom  10H    basis set group =>   3
Atom  11H    basis set group =>   3
Atom  12H    basis set group =>   3
Atom  13H    basis set group =>   3
Atom  14H    basis set group =>   3
-------------------------------
AUXILIARY BASIS SET INFORMATION
-------------------------------
There are 3 groups of distinct atoms

 Group   1 Type C   : 12s5p4d2f1g contracted to 6s4p3d1f1g pattern {711111/2111/211/2/1}
 Group   2 Type O   : 12s5p4d2f1g contracted to 6s4p3d1f1g pattern {711111/2111/211/2/1}
 Group   3 Type H   : 5s2p1d contracted to 3s1p1d pattern {311/2/1}

Atom   0C    basis set group =>   1
Atom   1C    basis set group =>   1
Atom   2C    basis set group =>   1
Atom   3C    basis set group =>   1
Atom   4C    basis set group =>   1
Atom   5C    basis set group =>   1
Atom   6O    basis set group =>   2
Atom   7H    basis set group =>   3
Atom   8H    basis set group =>   3
Atom   9H    basis set group =>   3
Atom  10H    basis set group =>   3
Atom  11H    basis set group =>   3
Atom  12H    basis set group =>   3
Atom  13H    basis set group =>   3
Atom  14H    basis set group =>   3


           ************************************************************
           *        Program running with 2 parallel MPI-processes     *
           *              working on a common directory               *
           ************************************************************
------------------------------------------------------------------------------
                           ORCA GTO INTEGRAL CALCULATION
                           -- RI-GTO INTEGRALS CHOSEN --
------------------------------------------------------------------------------

                         BASIS SET STATISTICS AND STARTUP INFO

Gaussian basis set:
 # of primitive gaussian shells          ...  194
 # of primitive gaussian functions       ...  294
 # of contracted shells                  ...   66
 # of contracted basis functions         ...  138
 Highest angular momentum                ...    2
 Maximum contraction depth               ...    8
Auxiliary gaussian basis set:
 # of primitive gaussian shells          ...  232
 # of primitive gaussian functions       ...  618
 # of contracted shells                  ...  145
 # of contracted aux-basis functions     ...  431
 Highest angular momentum                ...    4
 Maximum contraction depth               ...    7
Ratio of auxiliary to basis functions    ...  3.12
Integral package used                  ... LIBINT
 One Electron integrals                  ... done
 Ordering auxiliary basis shells         ... done
 Integral threshhold             Thresh  ...  2.500e-11
 Primitive cut-off               TCut    ...  2.500e-12
 Pre-screening matrix                    ... done
 Shell pair data                         ... 
 Ordering of the shell pairs             ... done (   0.000 sec) 2153 of 2211 pairs
 Determination of significant pairs      ... done (   0.000 sec)
 Creation of shell pair data             ... done (   0.001 sec)
 Storage of shell pair data              ... done (   0.398 sec)
 Shell pair data done in (   0.400 sec)
 Computing two index integrals           ... done
 Cholesky decomposition of the V-matrix  ... done


Timings:
 Total evaluation time                   ...   3.770 sec (  0.063 min)
 One electron matrix time                ...   1.573 sec (  0.026 min) = 41.7%
 Schwartz matrix evaluation time         ...   0.218 sec (  0.004 min) =  5.8%
 Two index repulsion integral time       ...   0.560 sec (  0.009 min) = 14.8%
 Cholesky decomposition of V             ...   0.678 sec (  0.011 min) = 18.0%
 Three index repulsion integral time     ...   0.000 sec (  0.000 min) =  0.0%



           ************************************************************
           *        Program running with 2 parallel MPI-processes     *
           *              working on a common directory               *
           ************************************************************
-------------------------------------------------------------------------------
                                 ORCA SCF
-------------------------------------------------------------------------------

------------
SCF SETTINGS
------------
Hamiltonian:
 Density Functional     Method          .... DFT(GTOs)
 Exchange Functional    Exchange        .... B88
   X-Alpha parameter    XAlpha          ....  0.666667
   Becke's b parameter  XBeta           ....  0.004200
 Correlation Functional Correlation     .... LYP
 LDA part of GGA corr.  LDAOpt          .... VWN-5
 Gradients option       PostSCFGGA      .... off
 Hybrid DFT is turned on
   Fraction HF Exchange ScalHFX         ....  0.200000
   Scaling of DF-GGA-X  ScalDFX         ....  0.720000
   Scaling of DF-GGA-C  ScalDFC         ....  0.810000
   Scaling of DF-LDA-C  ScalLDAC        ....  1.000000
   Perturbative correction              ....  0.000000
   NL short-range parameter             ....  4.800000
 RI-approximation to the Coulomb term is turned on
   Number of auxiliary basis functions  .... 431
   RIJ-COSX (HFX calculated with COS-X)).... on


General Settings:
 Integral files         IntName         .... frag_11_c00002
 Hartree-Fock type      HFTyp           .... RHF
 Total Charge           Charge          ....    0
 Multiplicity           Mult            ....    1
 Number of Electrons    NEL             ....   52
 Basis Dimension        Dim             ....  138
 Nuclear Repulsion      ENuc            ....    270.6074077602 Eh

Convergence Acceleration:
 DIIS                   CNVDIIS         .... on
   Start iteration      DIISMaxIt       ....    12
   Startup error        DIISStart       ....  0.200000
   # of expansion vecs  DIISMaxEq       ....     5
   Bias factor          DIISBfac        ....   1.050
   Max. coefficient     DIISMaxC        ....  10.000
 Newton-Raphson         CNVNR           .... off
 SOSCF                  CNVSOSCF        .... on
   Start iteration      SOSCFMaxIt      ....   150
   Startup grad/error   SOSCFStart      ....  0.003300
 Level Shifting         CNVShift        .... on
   Level shift para.    LevelShift      ....    0.2500
   Turn off err/grad.   ShiftErr        ....    0.0010
 Zerner damping         CNVZerner       .... off
 Static damping         CNVDamp         .... on
   Fraction old density DampFac         ....    0.7000
   Max. Damping (<1)    DampMax         ....    0.9800
   Min. Damping (>=0)   DampMin         ....    0.0000
   Turn off err/grad.   DampErr         ....    0.1000
 Fernandez-Rico         CNVRico         .... off

SCF Procedure:
 Maximum # iterations   MaxIter         ....   125
 SCF integral mode      SCFMode         .... Direct
   Integral package                     .... LIBINT
 Reset frequeny         DirectResetFreq ....    20
 Integral Threshold     Thresh          ....  2.500e-11 Eh
 Primitive CutOff       TCut            ....  2.500e-12 Eh

Convergence Tolerance:
 Convergence Check Mode ConvCheckMode   .... Total+1el-Energy
 Convergence forced     ConvForced      .... 0
 Energy Change          TolE            ....  1.000e-08 Eh
 1-El. energy change                    ....  1.000e-05 Eh
 Orbital Gradient       TolG            ....  1.000e-05
 Orbital Rotation angle TolX            ....  1.000e-05
 DIIS Error             TolErr          ....  5.000e-07


Diagonalization of the overlap matrix:
Smallest eigenvalue                        ... 1.488e-03
Time for diagonalization                   ...    0.007 sec
Threshold for overlap eigenvalues          ... 1.000e-08
Number of eigenvalues below threshold      ... 0
Time for construction of square roots      ...    0.593 sec
Total time needed                          ...    0.600 sec

-------------------
DFT GRID GENERATION
-------------------

General Integration Accuracy     IntAcc      ...  4.340
Radial Grid Type                 RadialGrid  ... Gauss-Chebyshev
Angular Grid (max. acc.)         AngularGrid ... Lebedev-110
Angular grid pruning method      GridPruning ... 3 (G Style)
Weight generation scheme         WeightScheme... Becke
Basis function cutoff            BFCut       ...    1.0000e-11
Integration weight cutoff        WCut        ...    1.0000e-14
Grids for H and He will be reduced by one unit

# of grid points (after initial pruning)     ...  18004 (   0.0 sec)
# of grid points (after weights+screening)   ...  16793 (   0.0 sec)
nearest neighbour list constructed           ...    0.0 sec
Grid point re-assignment to atoms done       ...    0.0 sec
Grid point division into batches done        ...    0.0 sec
Reduced shell lists constructed in    0.1 sec

Total number of grid points                  ...    16793
Total number of batches                      ...      271
Average number of points per batch           ...       61
Average number of grid points per atom       ...     1120
Average number of shells per batch           ...    56.36 (85.40%)
Average number of basis functions per batch  ...   115.88 (83.97%)
Average number of large shells per batch     ...    45.01 (79.85%)
Average number of large basis fcns per batch ...    92.60 (79.91%)
Maximum spatial batch extension              ...  16.33, 16.26, 19.91 au
Average spatial batch extension              ...   1.35,  1.42,  1.63 au

Time for grid setup =    1.575 sec

------------------------------
INITIAL GUESS: MODEL POTENTIAL
------------------------------
Loading Hartree-Fock densities                     ... done
Calculating cut-offs                               ... done
Setting up the integral package                    ... done
Initializing the effective Hamiltonian             ... done
Starting the Coulomb interaction                   ... done (   0.1 sec)
Reading the grid                                   ... done
Mapping shells                                     ... done
Starting the XC term evaluation                    ... done (   0.2 sec)
  promolecular density results
     # of electrons  =     51.998080838
     EX              =    -41.339736807
     EC              =     -1.714747269
     EX+EC           =    -43.054484077
Transforming the Hamiltonian                       ... done (   0.2 sec)
Diagonalizing the Hamiltonian                      ... done (   0.0 sec)
Back transforming the eigenvectors                 ... done (   0.0 sec)
Now organizing SCF variables                       ... done
                      ------------------
                      INITIAL GUESS DONE (   2.3 sec)
                      ------------------
--------------------
COSX GRID GENERATION
--------------------

General Integration Accuracy     IntAcc      ...  3.340
Radial Grid Type                 RadialGrid  ... Gauss-Chebyshev
Angular Grid (max. acc.)         AngularGrid ... Lebedev-50
Angular grid pruning method      GridPruning ... 3 (G Style)
Weight generation scheme         WeightScheme... Becke
Basis function cutoff            BFCut       ...    1.0000e-11
Integration weight cutoff        WCut        ...    1.0000e-14
Grids for H and He will be reduced by one unit

# of grid points (after initial pruning)     ...   6620 (   0.0 sec)
# of grid points (after weights+screening)   ...   6200 (   0.0 sec)
nearest neighbour list constructed           ...    0.0 sec
Grid point re-assignment to atoms done       ...    0.0 sec
Grid point division into batches done        ...    0.0 sec
Reduced shell lists constructed in    0.1 sec

Total number of grid points                  ...     6200
Total number of batches                      ...      104
Average number of points per batch           ...       59
Average number of grid points per atom       ...      413
Average number of shells per batch           ...    58.40 (88.48%)
Average number of basis functions per batch  ...   120.47 (87.30%)
Average number of large shells per batch     ...    47.47 (81.29%)
Average number of large basis fcns per batch ...    97.85 (81.22%)
Maximum spatial batch extension              ...  14.81, 15.09, 24.73 au
Average spatial batch extension              ...   1.71,  1.76,  2.24 au

Overlap Fitting                  UseSFitting ... on
Constructing numerical overlap ... done (      0.0 sec)
Inverting numerical overlap    ... done (      0.0 sec)
Obtaining analytic overlap     ... done (      0.2 sec)
Final contraction and storage  ... done (      0.4 sec)


General Integration Accuracy     IntAcc      ...  3.670
Radial Grid Type                 RadialGrid  ... Gauss-Chebyshev
Angular Grid (max. acc.)         AngularGrid ... Lebedev-50
Angular grid pruning method      GridPruning ... 3 (G Style)
Weight generation scheme         WeightScheme... Becke
Basis function cutoff            BFCut       ...    1.0000e-11
Integration weight cutoff        WCut        ...    1.0000e-14
Grids for H and He will be reduced by one unit

# of grid points (after initial pruning)     ...   8454 (   0.0 sec)
# of grid points (after weights+screening)   ...   7914 (   0.0 sec)
nearest neighbour list constructed           ...    0.0 sec
Grid point re-assignment to atoms done       ...    0.0 sec
Grid point division into batches done        ...    0.0 sec
Reduced shell lists constructed in    0.1 sec

Total number of grid points                  ...     7914
Total number of batches                      ...      132
Average number of points per batch           ...       59
Average number of grid points per atom       ...      528
Average number of shells per batch           ...    57.78 (87.54%)
Average number of basis functions per batch  ...   118.82 (86.10%)
Average number of large shells per batch     ...    46.75 (80.91%)
Average number of large basis fcns per batch ...    96.24 (80.99%)
Maximum spatial batch extension              ...  15.11, 16.28, 25.56 au
Average spatial batch extension              ...   1.60,  1.59,  2.02 au

Overlap Fitting                  UseSFitting ... on
Constructing numerical overlap ... done (      0.0 sec)
Inverting numerical overlap    ... done (      0.0 sec)
Obtaining analytic overlap     ... done (      0.1 sec)
Final contraction and storage  ... done (      0.4 sec)


General Integration Accuracy     IntAcc      ...  4.010
Radial Grid Type                 RadialGrid  ... Gauss-Chebyshev
Angular Grid (max. acc.)         AngularGrid ... Lebedev-110
Angular grid pruning method      GridPruning ... 3 (G Style)
Weight generation scheme         WeightScheme... Becke
Basis function cutoff            BFCut       ...    1.0000e-11
Integration weight cutoff        WCut        ...    1.0000e-14
Grids for H and He will be reduced by one unit

# of grid points (after initial pruning)     ...  15574 (   0.0 sec)
# of grid points (after weights+screening)   ...  14557 (   0.0 sec)
nearest neighbour list constructed           ...    0.0 sec
Grid point re-assignment to atoms done       ...    0.0 sec
Grid point division into batches done        ...    0.0 sec
Reduced shell lists constructed in    0.1 sec

Total number of grid points                  ...    14557
Total number of batches                      ...      236
Average number of points per batch           ...       61
Average number of grid points per atom       ...      970
Average number of shells per batch           ...    56.61 (85.78%)
Average number of basis functions per batch  ...   116.41 (84.36%)
Average number of large shells per batch     ...    45.44 (80.26%)
Average number of large basis fcns per batch ...    93.39 (80.22%)
Maximum spatial batch extension              ...  15.10, 15.44, 20.15 au
Average spatial batch extension              ...   1.40,  1.47,  1.73 au

Overlap Fitting                  UseSFitting ... on
Constructing numerical overlap ... done (      0.1 sec)
Inverting numerical overlap    ... done (      0.0 sec)
Obtaining analytic overlap     ... done (      0.1 sec)
Final contraction and storage  ... done (      0.5 sec)

Time for X-Grid setup             =    7.155 sec
--------------
SCF ITERATIONS
--------------
ITER       Energy         Delta-E        Max-DP      RMS-DP      [F,P]     Damp
               ***  Starting incremental Fock matrix formation  ***
  0   -308.2188056227   0.000000000000 0.09964046  0.00279746  0.2394920 0.7000
  1   -308.3232644309  -0.104458808137 0.06076094  0.00183574  0.0847531 0.7000
                               ***Turning on DIIS***
  2   -308.3615764462  -0.038312015385 0.05816699  0.00269883  0.0369277 0.0000
  3   -308.4246323302  -0.063055883965 0.05281790  0.00135580  0.0418136 0.0000
  4   -308.4374845054  -0.012852175196 0.01235090  0.00040656  0.0259502 0.0000
  5   -308.4389373840  -0.001452878577 0.00309431  0.00011386  0.0046595 0.0000
                      *** Initiating the SOSCF procedure ***
                           *** Shutting down DIIS ***
                      *** Re-Reading the Fockian *** 
                      *** Removing any level shift *** 
ITER      Energy       Delta-E        Grad      Rot      Max-DP    RMS-DP
  6   -308.43899622  -0.0000588381  0.000214  0.000214  0.001816  0.000067
               *** Restarting incremental Fock matrix formation ***
  7   -308.43899436   0.0000018619  0.000202  0.001090  0.001017  0.000027
  8   -308.43899271   0.0000016508  0.000391  0.000737  0.000748  0.000017
  9   -308.43899518  -0.0000024733  0.000030  0.000083  0.000124  0.000004
 10   -308.43899515   0.0000000350  0.000039  0.000046  0.000077  0.000002
 11   -308.43899521  -0.0000000626  0.000013  0.000040  0.000055  0.000002
 12   -308.43899521  -0.0000000021  0.000021  0.000024  0.000035  0.000001
                 **** Energy Check signals convergence ****
              ***Rediagonalizing the Fockian in SOSCF/NRSCF***

               *****************************************************
               *                     SUCCESS                       *
               *           SCF CONVERGED AFTER  13 CYCLES          *
               *****************************************************

Setting up the final grid:

General Integration Accuracy     IntAcc      ...  4.670
Radial Grid Type                 RadialGrid  ... Gauss-Chebyshev
Angular Grid (max. acc.)         AngularGrid ... Lebedev-302
Angular grid pruning method      GridPruning ... 3 (G Style)
Weight generation scheme         WeightScheme... Becke
Basis function cutoff            BFCut       ...    1.0000e-11
Integration weight cutoff        WCut        ...    1.0000e-14
Grids for H and He will be reduced by one unit

# of grid points (after initial pruning)     ...  70636 (   0.1 sec)
# of grid points (after weights+screening)   ...  65113 (   0.1 sec)
nearest neighbour list constructed           ...    0.0 sec
Grid point re-assignment to atoms done       ...    0.0 sec
Grid point division into batches done        ...    0.3 sec
Reduced shell lists constructed in    1.1 sec

Total number of grid points                  ...    65113
Total number of batches                      ...     1026
Average number of points per batch           ...       63
Average number of grid points per atom       ...     4341
Average number of shells per batch           ...    53.44 (80.96%)
Average number of basis functions per batch  ...   109.53 (79.37%)
Average number of large shells per batch     ...    41.67 (77.99%)
Average number of large basis fcns per batch ...    85.52 (78.08%)
Maximum spatial batch extension              ...  19.07, 17.99, 18.79 au
Average spatial batch extension              ...   0.92,  0.93,  1.02 au

Final grid set up in    2.1 sec
Final integration                            ... done (   3.7 sec)
Change in XC energy                          ...     0.000200323
Integrated number of electrons               ...    52.000024386
Previous integrated no of electrons          ...    52.000075275
Old exchange energy                            =     -8.419883311 Eh
New exchange energy                            =     -8.419567347 Eh
Exchange energy change after final integration =      0.000315964 Eh
Total energy after final integration           =   -308.438478927 Eh
Final COS-X integration done in                =     2.920 sec

----------------
TOTAL SCF ENERGY
----------------

Total Energy       :         -308.43847893 Eh           -8393.03771 eV

Components:
Nuclear Repulsion  :          270.60740776 Eh            7363.60192 eV
Electronic Energy  :         -579.04588669 Eh          -15756.63963 eV
One Electron Energy:         -952.67583139 Eh          -25923.62730 eV
Two Electron Energy:          373.62994470 Eh           10166.98768 eV

Virial components:
Potential Energy   :         -614.90446837 Eh          -16732.40124 eV
Kinetic Energy     :          306.46598944 Eh            8339.36354 eV
Virial Ratio       :            2.00643624


DFT components:
N(Alpha)           :       26.000012192971 electrons
N(Beta)            :       26.000012192971 electrons
N(Total)           :       52.000024385941 electrons
E(X)               :      -33.432647901621 Eh       
E(C)               :       -2.032892339988 Eh       
E(XC)              :      -35.465540241609 Eh       

---------------
SCF CONVERGENCE
---------------

  Last Energy change         ...   -2.4213e-09  Tolerance :   1.0000e-08
  Last MAX-Density change    ...    8.3605e-15  Tolerance :   1.0000e-07
  Last RMS-Density change    ...    1.0586e-16  Tolerance :   5.0000e-09
  Last Orbital Gradient      ...    5.7502e-07  Tolerance :   1.0000e-05
  Last Orbital Rotation      ...    2.8231e-06  Tolerance :   1.0000e-05

             **** THE GBW FILE WAS UPDATED (frag_11_c00002.gbw) ****
             **** DENSITY FILE WAS UPDATED (frag_11_c00002.scfp.tmp) ****
             **** ENERGY FILE WAS UPDATED (frag_11_c00002.en.tmp) ****
----------------
ORBITAL ENERGIES
----------------

  NO   OCC          E(Eh)            E(eV) 
   0   2.0000     -19.141898      -520.8775 
   1   2.0000     -10.279634      -279.7231 
   2   2.0000     -10.205399      -277.7030 
   3   2.0000     -10.199696      -277.5479 
   4   2.0000     -10.192071      -277.3404 
   5   2.0000     -10.183428      -277.1052 
   6   2.0000     -10.180361      -277.0217 
   7   2.0000      -1.038423       -28.2569 
   8   2.0000      -0.828821       -22.5534 
   9   2.0000      -0.758541       -20.6409 
  10   2.0000      -0.712787       -19.3959 
  11   2.0000      -0.626811       -17.0564 
  12   2.0000      -0.573797       -15.6138 
  13   2.0000      -0.518625       -14.1125 
  14   2.0000      -0.487769       -13.2729 
  15   2.0000      -0.471223       -12.8226 
  16   2.0000      -0.463000       -12.5989 
  17   2.0000      -0.431342       -11.7374 
  18   2.0000      -0.412031       -11.2119 
  19   2.0000      -0.407516       -11.0891 
  20   2.0000      -0.362730        -9.8704 
  21   2.0000      -0.360716        -9.8156 
  22   2.0000      -0.347654        -9.4601 
  23   2.0000      -0.317304        -8.6343 
  24   2.0000      -0.254296        -6.9197 
  25   2.0000      -0.227059        -6.1786 
  26   0.0000      -0.041651        -1.1334 
  27   0.0000      -0.026465        -0.7202 
  28   0.0000       0.055827         1.5191 
  29   0.0000       0.075553         2.0559 
  30   0.0000       0.085208         2.3186 
  31   0.0000       0.101592         2.7645 
  32   0.0000       0.103547         2.8177 
  33   0.0000       0.120804         3.2873 
  34   0.0000       0.132622         3.6088 
  35   0.0000       0.172875         4.7042 
  36   0.0000       0.181581         4.9411 
  37   0.0000       0.204399         5.5620 
  38   0.0000       0.257813         7.0155 
  39   0.0000       0.288876         7.8607 
  40   0.0000       0.293607         7.9895 
  41   0.0000       0.322976         8.7886 
  42   0.0000       0.389603        10.6016 
  43   0.0000       0.419856        11.4249 
  44   0.0000       0.430764        11.7217 
  45   0.0000       0.464785        12.6474 
  46   0.0000       0.473205        12.8765 
  47   0.0000       0.482414        13.1272 
  48   0.0000       0.493107        13.4181 
  49   0.0000       0.512458        13.9447 
  50   0.0000       0.519898        14.1471 
  51   0.0000       0.529650        14.4125 
  52   0.0000       0.558977        15.2105 
  53   0.0000       0.562718        15.3123 
  54   0.0000       0.586917        15.9708 
  55   0.0000       0.593574        16.1520 
  56   0.0000       0.621425        16.9098 
  57   0.0000       0.637859        17.3570 
  58   0.0000       0.642543        17.4845 
  59   0.0000       0.664606        18.0849 
  60   0.0000       0.673247        18.3200 
  61   0.0000       0.683736        18.6054 
  62   0.0000       0.697488        18.9796 
  63   0.0000       0.711200        19.3527 
  64   0.0000       0.762926        20.7603 
  65   0.0000       0.781763        21.2728 
  66   0.0000       0.799220        21.7479 
  67   0.0000       0.828901        22.5555 
  68   0.0000       0.874994        23.8098 
  69   0.0000       0.917980        24.9795 
  70   0.0000       0.950134        25.8545 
  71   0.0000       0.966556        26.3013 
  72   0.0000       0.991592        26.9826 
  73   0.0000       1.006037        27.3757 
  74   0.0000       1.013330        27.5741 
  75   0.0000       1.030644        28.0452 
  76   0.0000       1.057367        28.7724 
  77   0.0000       1.077028        29.3074 
  78   0.0000       1.097025        29.8516 
  79   0.0000       1.108786        30.1716 
  80   0.0000       1.152051        31.3489 
  81   0.0000       1.156815        31.4785 
  82   0.0000       1.233803        33.5735 
  83   0.0000       1.267687        34.4955 
  84   0.0000       1.330132        36.1947 
  85   0.0000       1.384168        37.6651 
  86   0.0000       1.410422        38.3795 
  87   0.0000       1.433151        38.9980 
  88   0.0000       1.465660        39.8826 
  89   0.0000       1.482196        40.3326 
  90   0.0000       1.508057        41.0363 
  91   0.0000       1.520244        41.3679 
  92   0.0000       1.526890        41.5488 
  93   0.0000       1.537921        41.8490 
  94   0.0000       1.545807        42.0635 
  95   0.0000       1.587702        43.2036 
  96   0.0000       1.620087        44.0848 
  97   0.0000       1.639914        44.6243 
  98   0.0000       1.663184        45.2576 
  99   0.0000       1.667746        45.3817 
 100   0.0000       1.689738        45.9801 
 101   0.0000       1.693734        46.0889 
 102   0.0000       1.708950        46.5029 
 103   0.0000       1.710901        46.5560 
 104   0.0000       1.738494        47.3068 
 105   0.0000       1.799546        48.9681 
 106   0.0000       1.821295        49.5599 
 107   0.0000       1.835545        49.9477 
 108   0.0000       1.849470        50.3266 
 109   0.0000       1.880909        51.1821 
 110   0.0000       1.894281        51.5460 
 111   0.0000       1.935682        52.6726 
 112   0.0000       1.960965        53.3606 
 113   0.0000       1.984781        54.0086 
 114   0.0000       2.019112        54.9428 
 115   0.0000       2.060502        56.0691 
 116   0.0000       2.108291        57.3695 
 117   0.0000       2.150024        58.5051 
 118   0.0000       2.217094        60.3302 
 119   0.0000       2.265115        61.6369 
 120   0.0000       2.289474        62.2998 
 121   0.0000       2.294602        62.4393 
 122   0.0000       2.301912        62.6382 
 123   0.0000       2.321759        63.1783 
 124   0.0000       2.423134        65.9368 
 125   0.0000       2.450804        66.6898 
 126   0.0000       2.486985        67.6743 
 127   0.0000       2.563341        69.7521 
 128   0.0000       2.608839        70.9901 
 129   0.0000       2.623899        71.3999 
 130   0.0000       2.704484        73.5927 
 131   0.0000       2.776002        75.5389 
 132   0.0000       2.818957        76.7077 
 133   0.0000       2.837554        77.2138 
 134   0.0000       3.076584        83.7181 
 135   0.0000       3.175633        86.4134 
 136   0.0000       3.328530        90.5739 
 137   0.0000       3.424664        93.1898 

                    ********************************
                    * MULLIKEN POPULATION ANALYSIS *
                    ********************************

-----------------------
MULLIKEN ATOMIC CHARGES
-----------------------
   0 C :   -0.014988
   1 C :    0.046763
   2 C :    0.075459
   3 C :   -0.136922
   4 C :   -0.004596
   5 C :    0.161227
   6 O :   -0.191384
   7 H :   -0.036766
   8 H :    0.016156
   9 H :    0.003837
  10 H :    0.051852
  11 H :    0.030328
  12 H :   -0.015916
  13 H :    0.008003
  14 H :    0.006948
Sum of atomic charges:    0.0000000

--------------------------------
MULLIKEN REDUCED ORBITAL CHARGES
--------------------------------
  0 C s       :     3.124721  s :     3.124721
      pz      :     0.973418  p :     2.823459
      px      :     0.947455
      py      :     0.902586
      dz2     :     0.006205  d :     0.066809
      dxz     :     0.013110
      dyz     :     0.005082
      dx2y2   :     0.018977
      dxy     :     0.023434
  1 C s       :     3.030872  s :     3.030872
      pz      :     0.981918  p :     2.878819
      px      :     1.012576
      py      :     0.884324
      dz2     :     0.002214  d :     0.043547
      dxz     :     0.008642
      dyz     :     0.001640
      dx2y2   :     0.010216
      dxy     :     0.020834
  2 C s       :     3.009446  s :     3.009446
      pz      :     0.985808  p :     2.873222
      px      :     0.868972
      py      :     1.018442
      dz2     :     0.001322  d :     0.041873
      dxz     :     0.001576
      dyz     :     0.009446
      dx2y2   :     0.011633
      dxy     :     0.017896
  3 C s       :     3.149216  s :     3.149216
      pz      :     0.964988  p :     2.903179
      px      :     0.933296
      py      :     1.004896
      dz2     :     0.007744  d :     0.084527
      dxz     :     0.011035
      dyz     :     0.014621
      dx2y2   :     0.023882
      dxy     :     0.027245
  4 C s       :     3.016124  s :     3.016124
      pz      :     0.997257  p :     2.927191
      px      :     0.954243
      py      :     0.975692
      dz2     :     0.012193  d :     0.061281
      dxz     :     0.015287
      dyz     :     0.004039
      dx2y2   :     0.018091
      dxy     :     0.011670
  5 C s       :     3.125479  s :     3.125479
      pz      :     0.825378  p :     2.571091
      px      :     0.928468
      py      :     0.817245
      dz2     :     0.031061  d :     0.142204
      dxz     :     0.030949
      dyz     :     0.021039
      dx2y2   :     0.022671
      dxy     :     0.036483
  6 O s       :     3.760936  s :     3.760936
      pz      :     1.325620  p :     4.412541
      px      :     1.777063
      py      :     1.309858
      dz2     :     0.004433  d :     0.017907
      dxz     :     0.001992
      dyz     :     0.006093
      dx2y2   :     0.003228
      dxy     :     0.002162
  7 H s       :     1.007927  s :     1.007927
      pz      :     0.006190  p :     0.028839
      px      :     0.006519
      py      :     0.016129
  8 H s       :     0.953643  s :     0.953643
      pz      :     0.007872  p :     0.030201
      px      :     0.009226
      py      :     0.013103
  9 H s       :     0.965833  s :     0.965833
      pz      :     0.007574  p :     0.030330
      px      :     0.011642
      py      :     0.011114
 10 H s       :     0.918869  s :     0.918869
      pz      :     0.017115  p :     0.029279
      px      :     0.005423
      py      :     0.006741
 11 H s       :     0.940614  s :     0.940614
      pz      :     0.006461  p :     0.029058
      px      :     0.004735
      py      :     0.017862
 12 H s       :     0.990323  s :     0.990323
      pz      :     0.003422  p :     0.025593
      px      :     0.017220
      py      :     0.004951
 13 H s       :     0.961650  s :     0.961650
      pz      :     0.005999  p :     0.030348
      px      :     0.008437
      py      :     0.015912
 14 H s       :     0.962507  s :     0.962507
      pz      :     0.006614  p :     0.030545
      px      :     0.016554
      py      :     0.007377


                     *******************************
                     * LOEWDIN POPULATION ANALYSIS *
                     *******************************

----------------------
LOEWDIN ATOMIC CHARGES
----------------------
   0 C :   -0.035256
   1 C :   -0.029516
   2 C :   -0.019870
   3 C :   -0.040568
   4 C :   -0.063231
   5 C :   -0.005618
   6 O :   -0.011453
   7 H :    0.025071
   8 H :    0.026336
   9 H :    0.022794
  10 H :    0.053082
  11 H :    0.043105
  12 H :   -0.005320
  13 H :    0.019701
  14 H :    0.020743

-------------------------------
LOEWDIN REDUCED ORBITAL CHARGES
-------------------------------
  0 C s       :     2.821417  s :     2.821417
      pz      :     0.947755  p :     3.008827
      px      :     1.060601
      py      :     1.000470
      dz2     :     0.018966  d :     0.205012
      dxz     :     0.037329
      dyz     :     0.013554
      dx2y2   :     0.062211
      dxy     :     0.072951
  1 C s       :     2.840029  s :     2.840029
      pz      :     0.963336  p :     3.046018
      px      :     1.060339
      py      :     1.022343
      dz2     :     0.010733  d :     0.143469
      dxz     :     0.023791
      dyz     :     0.006692
      dx2y2   :     0.037607
      dxy     :     0.064645
  2 C s       :     2.837346  s :     2.837346
      pz      :     0.970100  p :     3.040187
      px      :     1.020389
      py      :     1.049698
      dz2     :     0.009531  d :     0.142336
      dxz     :     0.006208
      dyz     :     0.024841
      dx2y2   :     0.041005
      dxy     :     0.060752
  3 C s       :     2.810758  s :     2.810758
      pz      :     0.937203  p :     2.985746
      px      :     0.980011
      py      :     1.068532
      dz2     :     0.021023  d :     0.244065
      dxz     :     0.025702
      dyz     :     0.041789
      dx2y2   :     0.073968
      dxy     :     0.081584
  4 C s       :     2.803160  s :     2.803160
      pz      :     1.037564  p :     3.077889
      px      :     1.010812
      py      :     1.029513
      dz2     :     0.040292  d :     0.182183
      dxz     :     0.043406
      dyz     :     0.011966
      dx2y2   :     0.054898
      dxy     :     0.031620
  5 C s       :     2.881581  s :     2.881581
      pz      :     0.870864  p :     2.756724
      px      :     1.013018
      py      :     0.872842
      dz2     :     0.065745  d :     0.367313
      dxz     :     0.085729
      dyz     :     0.063167
      dx2y2   :     0.053902
      dxy     :     0.098770
  6 O s       :     3.511449  s :     3.511449
      pz      :     1.365825  p :     4.469476
      px      :     1.743939
      py      :     1.359711
      dz2     :     0.005428  d :     0.030528
      dxz     :     0.003390
      dyz     :     0.012690
      dx2y2   :     0.005190
      dxy     :     0.003831
  7 H s       :     0.895582  s :     0.895582
      pz      :     0.018088  p :     0.079347
      px      :     0.018397
      py      :     0.042863
  8 H s       :     0.890788  s :     0.890788
      pz      :     0.022851  p :     0.082876
      px      :     0.024054
      py      :     0.035971
  9 H s       :     0.893927  s :     0.893927
      pz      :     0.022621  p :     0.083279
      px      :     0.032142
      py      :     0.028517
 10 H s       :     0.865611  s :     0.865611
      pz      :     0.044923  p :     0.081307
      px      :     0.018356
      py      :     0.018028
 11 H s       :     0.876208  s :     0.876208
      pz      :     0.017727  p :     0.080687
      px      :     0.015763
      py      :     0.047197
 12 H s       :     0.927822  s :     0.927822
      pz      :     0.012010  p :     0.077498
      px      :     0.049182
      py      :     0.016305
 13 H s       :     0.896395  s :     0.896395
      pz      :     0.018508  p :     0.083904
      px      :     0.021997
      py      :     0.043399
 14 H s       :     0.894974  s :     0.894974
      pz      :     0.020136  p :     0.084282
      px      :     0.044716
      py      :     0.019430


                      *****************************
                      * MAYER POPULATION ANALYSIS *
                      *****************************

  NA   - Mulliken gross atomic population
  ZA   - Total nuclear charge
  QA   - Mulliken gross atomic charge
  VA   - Mayer's total valence
  BVA  - Mayer's bonded valence
  FA   - Mayer's free valence

  ATOM       NA         ZA         QA         VA         BVA        FA
  0 C      6.0150     6.0000    -0.0150     4.1312     4.1312     0.0000
  1 C      5.9532     6.0000     0.0468     3.9783     3.9783    -0.0000
  2 C      5.9245     6.0000     0.0755     3.9610     3.9610    -0.0000
  3 C      6.1369     6.0000    -0.1369     4.3750     4.3750    -0.0000
  4 C      6.0046     6.0000    -0.0046     3.8578     3.8578    -0.0000
  5 C      5.8388     6.0000     0.1612     4.1871     4.1871    -0.0000
  6 O      8.1914     8.0000    -0.1914     2.3307     2.3307     0.0000
  7 H      1.0368     1.0000    -0.0368     0.9757     0.9757     0.0000
  8 H      0.9838     1.0000     0.0162     0.9678     0.9678    -0.0000
  9 H      0.9962     1.0000     0.0038     0.9824     0.9824    -0.0000
 10 H      0.9481     1.0000     0.0519     0.9738     0.9738     0.0000
 11 H      0.9697     1.0000     0.0303     0.9821     0.9821    -0.0000
 12 H      1.0159     1.0000    -0.0159     0.9636     0.9636    -0.0000
 13 H      0.9920     1.0000     0.0080     0.9761     0.9761     0.0000
 14 H      0.9931     1.0000     0.0069     0.9744     0.9744    -0.0000

  Mayer bond orders larger than 0.1
B(  0-C ,  1-C ) :   1.9977 B(  0-C ,  3-C ) :   1.1293 B(  0-C ,  7-H ) :   0.9243 
B(  1-C ,  2-C ) :   0.1091 B(  1-C ,  8-H ) :   0.9242 B(  1-C , 13-H ) :   0.9310 
B(  2-C ,  3-C ) :   1.9953 B(  2-C ,  9-H ) :   0.9099 B(  2-C , 14-H ) :   0.9114 
B(  3-C ,  4-C ) :   1.0464 B(  4-C ,  5-C ) :   0.9924 B(  4-C , 10-H ) :   0.9101 
B(  4-C , 11-H ) :   0.9161 B(  5-C ,  6-O ) :   2.2265 B(  5-C , 12-H ) :   0.9192 


-------
TIMINGS
-------

Total SCF time: 0 days 0 hours 2 min 10 sec 

Total time                  ....     130.726 sec
Sum of individual times     ....     113.355 sec  ( 86.7%)

Fock matrix formation       ....      95.757 sec  ( 73.3%)
  Split-RI-J                ....      11.263 sec  ( 11.8% of F)
  Chain of spheres X        ....      23.884 sec  ( 24.9% of F)
  COS-X 1 center corr.      ....       0.000 sec  (  0.0% of F)
  XC integration            ....      28.487 sec  ( 29.7% of F)
    Basis function eval.    ....       1.140 sec  (  4.0% of XC)
    Density eval.           ....       0.502 sec  (  1.8% of XC)
    XC-Functional eval.     ....       0.177 sec  (  0.6% of XC)
    XC-Potential eval.      ....       0.910 sec  (  3.2% of XC)
Diagonalization             ....       1.498 sec  (  1.1%)
Density matrix formation    ....       0.177 sec  (  0.1%)
Population analysis         ....       1.761 sec  (  1.3%)
Initial guess               ....       0.766 sec  (  0.6%)
Orbital Transformation      ....       0.000 sec  (  0.0%)
Orbital Orthonormalization  ....       0.000 sec  (  0.0%)
DIIS solution               ....       1.470 sec  (  1.1%)
SOSCF solution              ....       1.101 sec  (  0.8%)
Grid generation             ....      10.824 sec  (  8.3%)

-------------------------   --------------------
FINAL SINGLE POINT ENERGY      -308.438478927454
-------------------------   --------------------



           ************************************************************
           *        Program running with 2 parallel MPI-processes     *
           *              working on a common directory               *
           ************************************************************
------------------------------------------------------------------------------
                         ORCA SCF GRADIENT CALCULATION
------------------------------------------------------------------------------

Gradient of the Kohn-Sham DFT energy:
Kohn-Sham wavefunction type      ... RKS
Hartree-Fock exchange scaling    ...    0.200
Number of operators              ...    1
Number of atoms                  ...   15
Basis set dimensions             ...  138
Integral neglect threshold       ... 2.5e-11
Integral primitive cutoff        ... 2.5e-12

Nuclear repulsion gradient       ... done
One Electron Gradient            ... done
Pre-screening matrix             ... done
RI-J gradient                    ... done
COSX-gradient                    ... done
Exchange-correlation gradient    ... done

------------------
CARTESIAN GRADIENT
------------------

   1   C   :   -0.009486325   -0.002203959    0.005363154
   2   C   :    0.000973506   -0.004267610    0.000929387
   3   C   :    0.005963141   -0.002093656   -0.000491978
   4   C   :    0.002732272    0.004150722   -0.005283567
   5   C   :   -0.002909030    0.010758373    0.008310313
   6   C   :   -0.007029274    0.025263350    0.020123968
   7   O   :    0.002096254   -0.021874640   -0.020474456
   8   H   :    0.003262233   -0.003296653   -0.000130032
   9   H   :   -0.002647059   -0.003192032    0.001391067
  10   H   :    0.002872553    0.001836655   -0.001568718
  11   H   :    0.005373060   -0.000226365   -0.005555129
  12   H   :    0.000419400   -0.006016177   -0.001023478
  13   H   :    0.007880369   -0.005208035   -0.002167652
  14   H   :   -0.002820544    0.006016844   -0.001053881
  15   H   :   -0.005232754   -0.000077994    0.001728553

Difference to translation invariance:
           :    0.0014478014   -0.0004311764    0.0000975504

Norm of the cartesian gradient     ...    0.0524015636
RMS gradient                       ...    0.0078115639
MAX gradient                       ...    0.0252633496

-------
TIMINGS
-------

Total SCF gradient time            ...        8.515 sec

One electron gradient       ....       0.125 sec  (  1.5%)
Prescreening matrices       ....       0.143 sec  (  1.7%)
RI-J Coulomb gradient       ....       1.076 sec  ( 12.6%)
COSX gradient               ....       3.049 sec  ( 35.8%)
XC gradient                 ....       2.544 sec  ( 29.9%)
------------------------------------------------------------------------------
                         ORCA GEOMETRY RELAXATION STEP
------------------------------------------------------------------------------

Reading the OPT-File                    .... done
Getting information on internals        .... done
Copying old internal coords+grads       .... done
Making the new internal coordinates     .... (new redundants).... done
Validating the new internal coordinates .... (new redundants).... done
Calculating the B-matrix                .... done
Calculating the G,G- and P matrices     .... done
Transforming gradient to internals      .... done
Projecting the internal gradient        .... done
Number of atoms                         ....  15
Number of internal coordinates          ....  59
Current Energy                          ....  -308.438478927 Eh
Current gradient norm                   ....     0.052401564 Eh/bohr
Maximum allowed component of the step   ....  0.300
Current trust radius                    ....  0.300
Evaluating the initial hessian          ....  (Almloef) done
Projecting the Hessian                  .... done
Forming the augmented Hessian           .... done
Diagonalizing the augmented Hessian     .... done
Last element of RFO vector              ....  0.990954899
Lowest eigenvalues of augmented Hessian:
 -0.002878458  0.011130415  0.011217322  0.011650488  0.015965953
Length of the computed step             ....  0.135420226
The final length of the internal step   ....  0.135420226
Converting the step to cartesian space:
 Initial RMS(Int)=    0.0176302118
Transforming coordinates:
 Iter   0:  RMS(Cart)=    0.0350755211 RMS(Int)=    1.1544964865
 Iter   1:  RMS(Cart)=    0.0006571018 RMS(Int)=    0.0004324149
 Iter   2:  RMS(Cart)=    0.0000165843 RMS(Int)=    0.0000111312
 Iter   3:  RMS(Cart)=    0.0000007806 RMS(Int)=    0.0000005264
 Iter   4:  RMS(Cart)=    0.0000000256 RMS(Int)=    0.0000000202
done
Storing new coordinates                 .... done

                                .--------------------.
          ----------------------|Geometry convergence|-------------------------
          Item                value                   Tolerance       Converged
          ---------------------------------------------------------------------
          RMS gradient        0.0051675777            0.0020000000      NO
          MAX gradient        0.0299083685            0.0030000000      NO
          RMS step            0.0176302118            0.0200000000      YES
          MAX step            0.0479359113            0.0300000000      NO
          ........................................................
          Max(Bonds)      0.0155      Max(Angles)    1.19
          Max(Dihed)        2.75      Max(Improp)    0.00
          ---------------------------------------------------------------------

The optimization has not yet converged - more geometry cycles are needed


    ---------------------------------------------------------------------------
                         Redundant Internal Coordinates
                            (Angstroem and degrees)

        Definition                    Value    dE/dq     Step     New-Value
    ----------------------------------------------------------------------------
     1. B(C   1,C   0)                1.3397 -0.004598  0.0032    1.3429   
     2. B(C   3,C   2)                1.3453  0.001005 -0.0007    1.3446   
     3. B(C   3,C   0)                1.4596 -0.014204  0.0154    1.4750   
     4. B(C   4,C   3)                1.5149 -0.003949  0.0053    1.5201   
     5. B(C   5,C   4)                1.5207  0.000083 -0.0001    1.5206   
     6. B(O   6,C   5)                1.2266  0.029908 -0.0155    1.2111   
     7. B(H   7,C   0)                1.0900 -0.004198  0.0061    1.0961   
     8. B(H   8,C   1)                1.0859 -0.004439  0.0064    1.0923   
     9. B(H   9,C   2)                1.0868 -0.003588  0.0052    1.0920   
    10. B(H  10,C   4)                1.0967 -0.006443  0.0096    1.1063   
    11. B(H  11,C   4)                1.0956 -0.005808  0.0086    1.1042   
    12. B(H  12,C   5)                1.1056 -0.009368  0.0145    1.1200   
    13. B(H  13,C   1)                1.0835 -0.006691  0.0095    1.0931   
    14. B(H  14,C   2)                1.0842 -0.005194  0.0074    1.0916   
    15. A(C   1,C   0,C   3)          127.04 -0.004309    0.62    127.66   
    16. A(C   1,C   0,H   7)          116.55  0.000170    0.03    116.57   
    17. A(C   3,C   0,H   7)          116.40  0.004131   -0.63    115.77   
    18. A(H   8,C   1,H  13)          116.65 -0.000048    0.01    116.66   
    19. A(C   0,C   1,H  13)          123.12  0.000642   -0.10    123.02   
    20. A(C   0,C   1,H   8)          120.23 -0.000596    0.09    120.33   
    21. A(C   3,C   2,H  14)          123.20  0.002715   -0.44    122.76   
    22. A(H   9,C   2,H  14)          115.74 -0.001918    0.35    116.09   
    23. A(C   3,C   2,H   9)          121.03 -0.000802    0.10    121.14   
    24. A(C   0,C   3,C   4)          115.81 -0.001728    0.26    116.07   
    25. A(C   2,C   3,C   4)          120.42  0.002865   -0.39    120.02   
    26. A(C   0,C   3,C   2)          123.76 -0.001143    0.15    123.91   
    27. A(H  10,C   4,H  11)          106.48  0.000646   -0.72    105.76   
    28. A(C   5,C   4,H  11)          106.53  0.001242   -0.26    106.28   
    29. A(C   3,C   4,H  11)          111.67  0.002438   -0.41    111.26   
    30. A(C   5,C   4,H  10)          107.15  0.004481   -0.72    106.43   
    31. A(C   3,C   4,H  10)          109.50 -0.002126    0.74    110.25   
    32. A(C   3,C   4,C   5)          115.06 -0.006065    1.19    116.25   
    33. A(C   4,C   5,O   6)          126.22  0.001000   -0.11    126.11   
    34. A(O   6,C   5,H  12)          119.73 -0.002101    0.34    120.06   
    35. A(C   4,C   5,H  12)          114.04  0.001087   -0.17    113.88   
    36. D(H   8,C   1,C   0,H   7)      0.37 -0.000007   -0.12      0.25   
    37. D(H  13,C   1,C   0,H   7)   -179.40  0.000499   -0.79   -180.19   
    38. D(H   8,C   1,C   0,C   3)    179.31 -0.000459    0.74    180.05   
    39. D(H  13,C   1,C   0,C   3)     -0.46  0.000047    0.07     -0.39   
    40. D(C   2,C   3,C   0,H   7)    178.29  0.000253   -1.01    177.28   
    41. D(C   4,C   3,C   0,C   1)    178.18  0.000406   -1.00    177.18   
    42. D(C   4,C   3,C   2,H   9)      1.67  0.000458   -0.82      0.85   
    43. D(C   0,C   3,C   2,H   9)   -179.55  0.000054    0.10   -179.45   
    44. D(C   0,C   3,C   2,H  14)     -1.44 -0.000176    0.43     -1.01   
    45. D(C   4,C   3,C   2,H  14)    179.78  0.000228   -0.50    179.29   
    46. D(C   4,C   3,C   0,H   7)     -2.88 -0.000082   -0.13     -3.02   
    47. D(C   2,C   3,C   0,C   1)     -0.65  0.000742   -1.88     -2.53   
    48. D(H  10,C   4,C   3,C   0)   -123.62  0.000251   -1.49   -125.10   
    49. D(C   5,C   4,C   3,C   2)    -65.47 -0.000165   -1.08    -66.55   
    50. D(C   5,C   4,C   3,C   0)    115.66  0.000206   -1.93    113.73   
    51. D(H  11,C   4,C   3,C   2)    172.94  0.000813   -1.31    171.64   
    52. D(H  11,C   4,C   3,C   0)     -5.93  0.001185   -2.16     -8.09   
    53. D(H  10,C   4,C   3,C   2)     55.25 -0.000120   -0.63     54.62   
    54. D(H  12,C   5,C   4,H  11)    -52.48 -0.001688    2.75    -49.73   
    55. D(H  12,C   5,C   4,H  10)     61.18  0.001688    1.47     62.65   
    56. D(H  12,C   5,C   4,C   3)   -176.82 -0.001686    2.67   -174.15   
    57. D(O   6,C   5,C   4,H  11)    128.73 -0.000905   -0.45    128.28   
    58. D(O   6,C   5,C   4,H  10)   -117.60  0.002472   -1.73   -119.33   
    59. D(O   6,C   5,C   4,C   3)      4.40 -0.000903   -0.53      3.87   
    ----------------------------------------------------------------------------

         *************************************************************
         *                GEOMETRY OPTIMIZATION CYCLE   2            *
         *************************************************************
---------------------------------
CARTESIAN COORDINATES (ANGSTROEM)
---------------------------------
  C      0.831274    1.223732   -0.162101
  C      2.130169    1.063397   -0.462934
  C      0.232540   -1.068174    0.602841
  C     -0.100243    0.214759    0.376319
  C     -1.507029    0.701410    0.684461
  C     -2.621797    0.121211   -0.171615
  O     -2.497646   -0.732476   -1.021659
  H      0.406441    2.218776   -0.337922
  H      2.712172    1.899338   -0.857429
  H     -0.496952   -1.779959    0.994863
  H     -1.769173    0.474405    1.735003
  H     -1.581437    1.798841    0.587240
  H     -3.624949    0.581767    0.018103
  H      2.660842    0.117572   -0.326478
  H      1.225286   -1.467699    0.387509

----------------------------
CARTESIAN COORDINATES (A.U.)
----------------------------
  NO LB      ZA    FRAG     MASS         X           Y           Z
   0 C     6.0000    0    12.011    1.570881    2.312518   -0.306327
   1 C     6.0000    0    12.011    4.025436    2.009529   -0.874818
   2 C     6.0000    0    12.011    0.439438   -2.018555    1.139204
   3 C     6.0000    0    12.011   -0.189432    0.405835    0.711139
   4 C     6.0000    0    12.011   -2.847872    1.325473    1.293444
   5 C     6.0000    0    12.011   -4.954479    0.229055   -0.324305
   6 O     8.0000    0    15.999   -4.719867   -1.384178   -1.930655
   7 H     1.0000    0     1.008    0.768062    4.192878   -0.638580
   8 H     1.0000    0     1.008    5.125263    3.589228   -1.620306
   9 H     1.0000    0     1.008   -0.939103   -3.363634    1.880019
  10 H     1.0000    0     1.008   -3.343252    0.896495    3.278680
  11 H     1.0000    0     1.008   -2.988484    3.399316    1.109722
  12 H     1.0000    0     1.008   -6.850160    1.099381    0.034209
  13 H     1.0000    0     1.008    5.028263    0.222179   -0.616954
  14 H     1.0000    0     1.008    2.315456   -2.773549    0.732286

--------------------------------
INTERNAL COORDINATES (ANGSTROEM)
--------------------------------
 C      0   0   0     0.000000000000     0.00000000     0.00000000
 C      1   0   0     1.342883224758     0.00000000     0.00000000
 C      1   2   0     2.489266519350   101.04374732     0.00000000
 C      3   1   2     1.344608493549    29.45726448   177.95902564
 C      4   3   1     1.520140622160   120.02258937   180.30107555
 C      5   4   3     1.520594192424   116.24266252   293.44747146
 O      6   5   4     1.211102099544   126.08263853     3.86707645
 H      1   2   3     1.096133646334   116.57253276   181.35171819
 H      2   1   3     1.092314436284   120.32447631   178.89611133
 H      3   1   2     1.092006822949   150.59026263   178.91827533
 H      5   4   3     1.106295097793   110.24821670    54.62482511
 H      5   4   3     1.104238350986   111.26456798   171.63592642
 H      6   5   4     1.120007726704   113.85095923   185.85125181
 H      2   1   3     1.093077757096   123.01973426   358.45832804
 H      3   1   2     1.091573503349    93.30322771   357.10679609

---------------------------
INTERNAL COORDINATES (A.U.)
---------------------------
 C      0   0   0     0.000000000000     0.00000000     0.00000000
 C      1   0   0     2.537681524629     0.00000000     0.00000000
 C      1   2   0     4.704031995911   101.04374732     0.00000000
 C      3   1   2     2.540941810152    29.45726448   177.95902564
 C      4   3   1     2.872649460932   120.02258937   180.30107555
 C      5   4   3     2.873506584513   116.24266252   293.44747146
 O      6   5   4     2.288651288355   126.08263853     3.86707645
 H      1   2   3     2.071392397748   116.57253276   181.35171819
 H      2   1   3     2.064175136705   120.32447631   178.89611133
 H      3   1   2     2.063593831747   150.59026263   178.91827533
 H      5   4   3     2.090594758129   110.24821670    54.62482511
 H      5   4   3     2.086708069937   111.26456798   171.63592642
 H      6   5   4     2.116507871346   113.85095923   185.85125181
 H      2   1   3     2.065617603992   123.01973426   358.45832804
 H      3   1   2     2.062774976375    93.30322771   357.10679609



           ************************************************************
           *        Program running with 2 parallel MPI-processes     *
           *              working on a common directory               *
           ************************************************************
 One Electron integrals                  ... done
 Pre-screening matrix                    ... done


           ************************************************************
           *        Program running with 2 parallel MPI-processes     *
           *              working on a common directory               *
           ************************************************************

Diagonalization of the overlap matrix:
Smallest eigenvalue                        ... 1.522e-03
Time for diagonalization                   ...    0.007 sec
Threshold for overlap eigenvalues          ... 1.000e-08
Number of eigenvalues below threshold      ... 0
Time for construction of square roots      ...    0.461 sec
Total time needed                          ...    0.468 sec

-------------------
DFT GRID GENERATION
-------------------

General Integration Accuracy     IntAcc      ...  4.340
Radial Grid Type                 RadialGrid  ... Gauss-Chebyshev
Angular Grid (max. acc.)         AngularGrid ... Lebedev-110
Angular grid pruning method      GridPruning ... 3 (G Style)
Weight generation scheme         WeightScheme... Becke
Basis function cutoff            BFCut       ...    1.0000e-11
Integration weight cutoff        WCut        ...    1.0000e-14
Grids for H and He will be reduced by one unit

# of grid points (after initial pruning)     ...  18004 (   0.1 sec)
# of grid points (after weights+screening)   ...  16801 (   0.0 sec)
nearest neighbour list constructed           ...    0.0 sec
Grid point re-assignment to atoms done       ...    0.0 sec
Grid point division into batches done        ...    0.0 sec
Reduced shell lists constructed in    0.1 sec

Total number of grid points                  ...    16801
Total number of batches                      ...      271
Average number of points per batch           ...       61
Average number of grid points per atom       ...     1120
Average number of shells per batch           ...    56.09 (84.98%)
Average number of basis functions per batch  ...   115.27 (83.53%)
Average number of large shells per batch     ...    44.75 (79.79%)
Average number of large basis fcns per batch ...    92.17 (79.96%)
Maximum spatial batch extension              ...  15.91, 16.31, 20.60 au
Average spatial batch extension              ...   1.34,  1.45,  1.64 au

Time for grid setup =    1.306 sec

--------------------
COSX GRID GENERATION
--------------------

General Integration Accuracy     IntAcc      ...  3.340
Radial Grid Type                 RadialGrid  ... Gauss-Chebyshev
Angular Grid (max. acc.)         AngularGrid ... Lebedev-50
Angular grid pruning method      GridPruning ... 3 (G Style)
Weight generation scheme         WeightScheme... Becke
Basis function cutoff            BFCut       ...    1.0000e-11
Integration weight cutoff        WCut        ...    1.0000e-14
Grids for H and He will be reduced by one unit

# of grid points (after initial pruning)     ...   6620 (   0.0 sec)
# of grid points (after weights+screening)   ...   6208 (   0.0 sec)
nearest neighbour list constructed           ...    0.0 sec
Grid point re-assignment to atoms done       ...    0.0 sec
Grid point division into batches done        ...    0.0 sec
Reduced shell lists constructed in    0.1 sec

Total number of grid points                  ...     6208
Total number of batches                      ...      104
Average number of points per batch           ...       59
Average number of grid points per atom       ...      414
Average number of shells per batch           ...    58.25 (88.25%)
Average number of basis functions per batch  ...   119.98 (86.94%)
Average number of large shells per batch     ...    47.38 (81.34%)
Average number of large basis fcns per batch ...    97.83 (81.54%)
Maximum spatial batch extension              ...  14.86, 15.09, 24.75 au
Average spatial batch extension              ...   1.72,  1.78,  2.21 au

Overlap Fitting                  UseSFitting ... on
Constructing numerical overlap ... done (      0.0 sec)
Inverting numerical overlap    ... done (      0.0 sec)
Obtaining analytic overlap     ... done (      0.1 sec)
Final contraction and storage  ... done (      0.1 sec)


General Integration Accuracy     IntAcc      ...  3.670
Radial Grid Type                 RadialGrid  ... Gauss-Chebyshev
Angular Grid (max. acc.)         AngularGrid ... Lebedev-50
Angular grid pruning method      GridPruning ... 3 (G Style)
Weight generation scheme         WeightScheme... Becke
Basis function cutoff            BFCut       ...    1.0000e-11
Integration weight cutoff        WCut        ...    1.0000e-14
Grids for H and He will be reduced by one unit

# of grid points (after initial pruning)     ...   8454 (   0.0 sec)
# of grid points (after weights+screening)   ...   7910 (   0.0 sec)
nearest neighbour list constructed           ...    0.0 sec
Grid point re-assignment to atoms done       ...    0.0 sec
Grid point division into batches done        ...    0.0 sec
Reduced shell lists constructed in    0.1 sec

Total number of grid points                  ...     7910
Total number of batches                      ...      131
Average number of points per batch           ...       60
Average number of grid points per atom       ...      527
Average number of shells per batch           ...    57.72 (87.45%)
Average number of basis functions per batch  ...   118.82 (86.10%)
Average number of large shells per batch     ...    46.54 (80.63%)
Average number of large basis fcns per batch ...    95.76 (80.59%)
Maximum spatial batch extension              ...  15.16, 16.28, 25.54 au
Average spatial batch extension              ...   1.61,  1.68,  2.13 au

Overlap Fitting                  UseSFitting ... on
Constructing numerical overlap ... done (      0.0 sec)
Inverting numerical overlap    ... done (      0.0 sec)
Obtaining analytic overlap     ... done (      0.1 sec)
Final contraction and storage  ... done (      0.2 sec)


General Integration Accuracy     IntAcc      ...  4.010
Radial Grid Type                 RadialGrid  ... Gauss-Chebyshev
Angular Grid (max. acc.)         AngularGrid ... Lebedev-110
Angular grid pruning method      GridPruning ... 3 (G Style)
Weight generation scheme         WeightScheme... Becke
Basis function cutoff            BFCut       ...    1.0000e-11
Integration weight cutoff        WCut        ...    1.0000e-14
Grids for H and He will be reduced by one unit

# of grid points (after initial pruning)     ...  15574 (   0.0 sec)
# of grid points (after weights+screening)   ...  14565 (   0.0 sec)
nearest neighbour list constructed           ...    0.0 sec
Grid point re-assignment to atoms done       ...    0.0 sec
Grid point division into batches done        ...    0.0 sec
Reduced shell lists constructed in    0.1 sec

Total number of grid points                  ...    14565
Total number of batches                      ...      236
Average number of points per batch           ...       61
[...]
ORBITAL ENERGIES
----------------

  NO   OCC          E(Eh)            E(eV) 
   0   2.0000     -19.145629      -520.9790 
   1   2.0000     -10.282387      -279.7980 
   2   2.0000     -10.207985      -277.7734 
   3   2.0000     -10.204059      -277.6666 
   4   2.0000     -10.191504      -277.3249 
   5   2.0000     -10.185458      -277.1604 
   6   2.0000     -10.184053      -277.1222 
   7   2.0000      -1.053390       -28.6642 
   8   2.0000      -0.826904       -22.5012 
   9   2.0000      -0.756292       -20.5798 
  10   2.0000      -0.714247       -19.4356 
  11   2.0000      -0.618328       -16.8256 
  12   2.0000      -0.574920       -15.6444 
  13   2.0000      -0.514835       -14.0094 
  14   2.0000      -0.484457       -13.1827 
  15   2.0000      -0.477380       -12.9902 
  16   2.0000      -0.455934       -12.4066 
  17   2.0000      -0.436764       -11.8849 
  18   2.0000      -0.418108       -11.3773 
  19   2.0000      -0.410006       -11.1568 
  20   2.0000      -0.377851       -10.2818 
  21   2.0000      -0.359224        -9.7750 
  22   2.0000      -0.341062        -9.2808 
  23   2.0000      -0.301115        -8.1938 
  24   2.0000      -0.259000        -7.0478 
  25   2.0000      -0.237000        -6.4491 
  26   0.0000      -0.027642        -0.7522 
  27   0.0000      -0.021562        -0.5867 
  28   0.0000       0.040614         1.1052 
  29   0.0000       0.070182         1.9098 
  30   0.0000       0.092503         2.5171 
  31   0.0000       0.097317         2.6481 
  32   0.0000       0.107458         2.9241 
  33   0.0000       0.112569         3.0632 
  34   0.0000       0.139190         3.7875 
  35   0.0000       0.153365         4.1733 
  36   0.0000       0.165924         4.5150 
  37   0.0000       0.200242         5.4489 
  38   0.0000       0.266765         7.2590 
  39   0.0000       0.290324         7.9001 
  40   0.0000       0.295733         8.0473 
  41   0.0000       0.311261         8.4699 
  42   0.0000       0.354782         9.6541 
  43   0.0000       0.411872        11.2076 
  44   0.0000       0.434514        11.8237 
  45   0.0000       0.463076        12.6009 
  46   0.0000       0.466463        12.6931 
  47   0.0000       0.484383        13.1807 
  48   0.0000       0.490071        13.3355 
  49   0.0000       0.523388        14.2421 
  50   0.0000       0.533082        14.5059 
  51   0.0000       0.535868        14.5817 
  52   0.0000       0.550090        14.9687 
  53   0.0000       0.560427        15.2500 
  54   0.0000       0.575678        15.6650 
  55   0.0000       0.601115        16.3572 
  56   0.0000       0.610217        16.6048 
  57   0.0000       0.628943        17.1144 
  58   0.0000       0.640987        17.4421 
  59   0.0000       0.656526        17.8650 
  60   0.0000       0.665816        18.1178 
  61   0.0000       0.680983        18.5305 
  62   0.0000       0.697208        18.9720 
  63   0.0000       0.702907        19.1271 
  64   0.0000       0.742323        20.1996 
  65   0.0000       0.789642        21.4873 
  66   0.0000       0.796478        21.6733 
  67   0.0000       0.834210        22.7000 
  68   0.0000       0.864562        23.5259 
  69   0.0000       0.879627        23.9359 
  70   0.0000       0.905014        24.6267 
  71   0.0000       0.944241        25.6941 
  72   0.0000       0.982259        26.7286 
  73   0.0000       0.986090        26.8329 
  74   0.0000       1.021241        27.7894 
  75   0.0000       1.029949        28.0263 
  76   0.0000       1.062518        28.9126 
  77   0.0000       1.105457        30.0810 
  78   0.0000       1.119641        30.4670 
  79   0.0000       1.134394        30.8684 
  80   0.0000       1.153209        31.3804 
  81   0.0000       1.158161        31.5152 
  82   0.0000       1.233168        33.5562 
  83   0.0000       1.259578        34.2749 
  84   0.0000       1.277938        34.7745 
  85   0.0000       1.367796        37.2196 
  86   0.0000       1.412758        38.4431 
  87   0.0000       1.435931        39.0737 
  88   0.0000       1.446853        39.3709 
  89   0.0000       1.470119        40.0040 
  90   0.0000       1.490440        40.5569 
  91   0.0000       1.500091        40.8196 
  92   0.0000       1.516670        41.2707 
  93   0.0000       1.540469        41.9183 
  94   0.0000       1.580202        42.9995 
  95   0.0000       1.587284        43.1922 
  96   0.0000       1.616998        44.0008 
  97   0.0000       1.633052        44.4376 
  98   0.0000       1.640783        44.6480 
  99   0.0000       1.667266        45.3686 
 100   0.0000       1.673761        45.5454 
 101   0.0000       1.680167        45.7197 
 102   0.0000       1.704805        46.3901 
 103   0.0000       1.713182        46.6181 
 104   0.0000       1.744855        47.4799 
 105   0.0000       1.778635        48.3991 
 106   0.0000       1.819700        49.5165 
 107   0.0000       1.835933        49.9583 
 108   0.0000       1.866052        50.7779 
 109   0.0000       1.875411        51.0325 
 110   0.0000       1.899966        51.7007 
 111   0.0000       1.936895        52.7056 
 112   0.0000       1.940900        52.8146 
 113   0.0000       1.944848        52.9220 
 114   0.0000       1.985999        54.0418 
 115   0.0000       2.055420        55.9308 
 116   0.0000       2.104955        57.2787 
 117   0.0000       2.175240        59.1913 
 118   0.0000       2.193511        59.6885 
 119   0.0000       2.247088        61.1464 
 120   0.0000       2.261439        61.5369 
 121   0.0000       2.276859        61.9565 
 122   0.0000       2.289133        62.2905 
 123   0.0000       2.350813        63.9689 
 124   0.0000       2.404733        65.4361 
 125   0.0000       2.409925        65.5774 
 126   0.0000       2.439019        66.3691 
 127   0.0000       2.541944        69.1698 
 128   0.0000       2.589863        70.4738 
 129   0.0000       2.650666        72.1283 
 130   0.0000       2.712509        73.8111 
 131   0.0000       2.751549        74.8735 
 132   0.0000       2.791500        75.9606 
 133   0.0000       2.821036        76.7643 
 134   0.0000       3.085215        83.9530 
 135   0.0000       3.090401        84.0941 
 136   0.0000       3.345211        91.0278 
 137   0.0000       3.446661        93.7884 

                    ********************************
                    * MULLIKEN POPULATION ANALYSIS *
                    ********************************

-----------------------
MULLIKEN ATOMIC CHARGES
-----------------------
   0 C :   -0.034020
   1 C :    0.031148
   2 C :    0.056733
   3 C :   -0.120077
   4 C :   -0.007695
   5 C :    0.156875
   6 O :   -0.181426
   7 H :   -0.006064
   8 H :    0.018526
   9 H :    0.003086
  10 H :    0.031283
  11 H :    0.044497
  12 H :   -0.016238
  13 H :    0.011479
  14 H :    0.011893
Sum of atomic charges:   -0.0000000

--------------------------------
MULLIKEN REDUCED ORBITAL CHARGES
--------------------------------
  0 C s       :     3.139254  s :     3.139254
      pz      :     0.941187  p :     2.830477
      px      :     0.943568
      py      :     0.945722
      dz2     :     0.008186  d :     0.064290
      dxz     :     0.020123
      dyz     :     0.006182
      dx2y2   :     0.011790
      dxy     :     0.018009
  1 C s       :     3.050551  s :     3.050551
      pz      :     0.921829  p :     2.875180
      px      :     0.994009
      py      :     0.959342
      dz2     :     0.003294  d :     0.043121
      dxz     :     0.017120
      dyz     :     0.001737
      dx2y2   :     0.007524
      dxy     :     0.013446
  2 C s       :     3.028008  s :     3.028008
      pz      :     0.965035  p :     2.872983
      px      :     0.897778
      py      :     1.010170
      dz2     :     0.004001  d :     0.042277
      dxz     :     0.003962
      dyz     :     0.010104
      dx2y2   :     0.011217
      dxy     :     0.012992
  3 C s       :     3.162334  s :     3.162334
      pz      :     0.947116  p :     2.872568
      px      :     0.946145
      py      :     0.979306
      dz2     :     0.011437  d :     0.085175
      dxz     :     0.013754
      dyz     :     0.016327
      dx2y2   :     0.022132
      dxy     :     0.021525
  4 C s       :     3.029415  s :     3.029415
      pz      :     1.006164  p :     2.917397
      px      :     0.948552
      py      :     0.962681
      dz2     :     0.007241  d :     0.060883
      dxz     :     0.017739
      dyz     :     0.009627
      dx2y2   :     0.015968
      dxy     :     0.010307
  5 C s       :     3.127937  s :     3.127937
      pz      :     0.882337  p :     2.568320
      px      :     0.917772
      py      :     0.768211
      dz2     :     0.041257  d :     0.146868
      dxz     :     0.059272
      dyz     :     0.032658
      dx2y2   :     0.006164
      dxy     :     0.007517
  6 O s       :     3.750724  s :     3.750724
      pz      :     1.379651  p :     4.411914
      px      :     1.737483
      py      :     1.294779
      dz2     :     0.007977  d :     0.018789
      dxz     :     0.004311
      dyz     :     0.005751
      dx2y2   :     0.000416
      dxy     :     0.000334
  7 H s       :     0.977091  s :     0.977091
      pz      :     0.012037  p :     0.028973
      px      :     0.008743
      py      :     0.008194
  8 H s       :     0.951767  s :     0.951767
      pz      :     0.011172  p :     0.029706
      px      :     0.007845
      py      :     0.010688
  9 H s       :     0.967048  s :     0.967048
      pz      :     0.010918  p :     0.029866
      px      :     0.008910
      py      :     0.010038
 10 H s       :     0.940014  s :     0.940014
      pz      :     0.012056  p :     0.028703
      px      :     0.006172
      py      :     0.010475
 11 H s       :     0.927013  s :     0.927013
      pz      :     0.008285  p :     0.028490
      px      :     0.004613
      py      :     0.015591
 12 H s       :     0.991257  s :     0.991257
      pz      :     0.004066  p :     0.024981
      px      :     0.016542
      py      :     0.004373
 13 H s       :     0.958875  s :     0.958875
      pz      :     0.011984  p :     0.029647
      px      :     0.009264
      py      :     0.008398
 14 H s       :     0.958248  s :     0.958248
      pz      :     0.006942  p :     0.029859
      px      :     0.016144
      py      :     0.006773


                     *******************************
                     * LOEWDIN POPULATION ANALYSIS *
                     *******************************

----------------------
LOEWDIN ATOMIC CHARGES
----------------------
   0 C :   -0.025607
   1 C :   -0.039528
   2 C :   -0.040697
   3 C :   -0.029776
   4 C :   -0.065635
   5 C :   -0.018889
   6 O :    0.002226
   7 H :    0.029328
   8 H :    0.026747
   9 H :    0.020830
  10 H :    0.048958
  11 H :    0.050044
  12 H :   -0.004697
  13 H :    0.022220
  14 H :    0.024476

-------------------------------
LOEWDIN REDUCED ORBITAL CHARGES
-------------------------------
  0 C s       :     2.828483  s :     2.828483
      pz      :     0.972777  p :     3.001043
      px      :     1.066543
      py      :     0.961723
      dz2     :     0.023502  d :     0.196081
      dxz     :     0.060386
      dyz     :     0.019774
      dx2y2   :     0.040397
      dxy     :     0.052021
  1 C s       :     2.847884  s :     2.847884
      pz      :     1.001328  p :     3.048177
      px      :     1.062245
      py      :     0.984604
      dz2     :     0.012493  d :     0.143467
      dxz     :     0.051396
      dyz     :     0.011691
      dx2y2   :     0.028515
      dxy     :     0.039372
  2 C s       :     2.844329  s :     2.844329
      pz      :     0.996829  p :     3.053648
      px      :     1.015661
      py      :     1.041157
      dz2     :     0.013081  d :     0.142721
      dxz     :     0.015352
      dyz     :     0.033014
      dx2y2   :     0.035968
      dxy     :     0.045306
  3 C s       :     2.816757  s :     2.816757
      pz      :     0.949676  p :     2.972662
      px      :     0.977363
      py      :     1.045623
      dz2     :     0.031189  d :     0.240357
      dxz     :     0.035280
      dyz     :     0.046529
      dx2y2   :     0.063559
      dxy     :     0.063801
  4 C s       :     2.809206  s :     2.809206
      pz      :     1.031496  p :     3.073682
      px      :     1.011037
      py      :     1.031149
      dz2     :     0.020277  d :     0.182747
      dxz     :     0.054280
      dyz     :     0.033922
      dx2y2   :     0.047748
      dxy     :     0.026519
  5 C s       :     2.881321  s :     2.881321
      pz      :     1.001133  p :     2.757374
      px      :     0.996936
      py      :     0.759306
      dz2     :     0.110967  d :     0.380193
      dxz     :     0.165100
      dyz     :     0.068826
      dx2y2   :     0.016345
      dxy     :     0.018955
  6 O s       :     3.495113  s :     3.495113
      pz      :     1.484443  p :     4.470164
      px      :     1.705298
      py      :     1.280423
      dz2     :     0.016193  d :     0.032497
      dxz     :     0.007632
      dyz     :     0.007600
      dx2y2   :     0.000503
      dxy     :     0.000570
  7 H s       :     0.890079  s :     0.890079
      pz      :     0.032332  p :     0.080593
      px      :     0.023990
      py      :     0.024271
  8 H s       :     0.892319  s :     0.892319
      pz      :     0.031032  p :     0.080934
      px      :     0.020385
      py      :     0.029516
  9 H s       :     0.897617  s :     0.897617
      pz      :     0.030216  p :     0.081553
      px      :     0.025336
      py      :     0.026001
 10 H s       :     0.873020  s :     0.873020
      pz      :     0.032256  p :     0.078022
      px      :     0.019322
      py      :     0.026445
 11 H s       :     0.871677  s :     0.871677
      pz      :     0.022525  p :     0.078279
      px      :     0.015325
      py      :     0.040430
 12 H s       :     0.930649  s :     0.930649
      pz      :     0.013634  p :     0.074048
      px      :     0.046757
      py      :     0.013658
 13 H s       :     0.896415  s :     0.896415
      pz      :     0.032826  p :     0.081365
      px      :     0.023908
      py      :     0.024631
 14 H s       :     0.893029  s :     0.893029
      pz      :     0.020603  p :     0.082495
      px      :     0.043394
      py      :     0.018499


                      *****************************
                      * MAYER POPULATION ANALYSIS *
                      *****************************

  NA   - Mulliken gross atomic population
  ZA   - Total nuclear charge
  QA   - Mulliken gross atomic charge
  VA   - Mayer's total valence
  BVA  - Mayer's bonded valence
  FA   - Mayer's free valence

  ATOM       NA         ZA         QA         VA         BVA        FA
  0 C      6.0340     6.0000    -0.0340     4.0891     4.0891    -0.0000
  1 C      5.9689     6.0000     0.0311     3.9738     3.9738     0.0000
  2 C      5.9433     6.0000     0.0567     3.9567     3.9567     0.0000
  3 C      6.1201     6.0000    -0.1201     4.2981     4.2981     0.0000
  4 C      6.0077     6.0000    -0.0077     3.8793     3.8793    -0.0000
  5 C      5.8431     6.0000     0.1569     4.1851     4.1851    -0.0000
  6 O      8.1814     8.0000    -0.1814     2.3447     2.3447    -0.0000
  7 H      1.0061     1.0000    -0.0061     0.9981     0.9981     0.0000
  8 H      0.9815     1.0000     0.0185     0.9703     0.9703     0.0000
  9 H      0.9969     1.0000     0.0031     0.9768     0.9768     0.0000
 10 H      0.9687     1.0000     0.0313     0.9844     0.9844    -0.0000
 11 H      0.9555     1.0000     0.0445     0.9719     0.9719     0.0000
 12 H      1.0162     1.0000    -0.0162     0.9647     0.9647    -0.0000
 13 H      0.9885     1.0000     0.0115     0.9830     0.9830    -0.0000
 14 H      0.9881     1.0000     0.0119     0.9811     0.9811     0.0000

  Mayer bond orders larger than 0.1
B(  0-C ,  1-C ) :   2.0055 B(  0-C ,  3-C ) :   1.0709 B(  0-C ,  7-H ) :   0.9336 
B(  1-C ,  8-H ) :   0.9335 B(  1-C , 13-H ) :   0.9372 B(  2-C ,  3-C ) :   1.9973 
B(  2-C ,  9-H ) :   0.9139 B(  2-C , 14-H ) :   0.9211 B(  3-C ,  4-C ) :   1.0564 
B(  4-C ,  5-C ) :   0.9994 B(  4-C , 10-H ) :   0.9106 B(  4-C , 11-H ) :   0.9067 
B(  5-C ,  6-O ) :   2.2244 B(  5-C , 12-H ) :   0.9129 

-------
TIMINGS
-------

Total SCF time: 0 days 0 hours 0 min 37 sec 

Total time                  ....      37.300 sec
Sum of individual times     ....      33.817 sec  ( 90.7%)

Fock matrix formation       ....      27.418 sec  ( 73.5%)
  Split-RI-J                ....       3.039 sec  ( 11.1% of F)
  Chain of spheres X        ....      14.949 sec  ( 54.5% of F)
  COS-X 1 center corr.      ....       0.000 sec  (  0.0% of F)
  XC integration            ....       5.316 sec  ( 19.4% of F)
    Basis function eval.    ....       0.816 sec  ( 15.3% of XC)
    Density eval.           ....       0.350 sec  (  6.6% of XC)
    XC-Functional eval.     ....       0.123 sec  (  2.3% of XC)
    XC-Potential eval.      ....       0.621 sec  ( 11.7% of XC)
Diagonalization             ....       0.008 sec  (  0.0%)
Density matrix formation    ....       0.056 sec  (  0.2%)
Population analysis         ....       0.249 sec  (  0.7%)
Initial guess               ....       0.008 sec  (  0.0%)
Orbital Transformation      ....       0.000 sec  (  0.0%)
Orbital Orthonormalization  ....       0.004 sec  (  0.0%)
DIIS solution               ....       0.002 sec  (  0.0%)
SOSCF solution              ....       0.326 sec  (  0.9%)
Grid generation             ....       5.749 sec  ( 15.4%)

-------------------------   --------------------
FINAL SINGLE POINT ENERGY      -308.444429128834
-------------------------   --------------------

                                *** OPTIMIZATION RUN DONE ***

                            ***************************************
                            *     ORCA property calculations      *
                            ***************************************

                                    ---------------------
                                    Active property flags
                                    ---------------------
   (+) Dipole Moment


------------------------------------------------------------------------------
                       ORCA ELECTRIC PROPERTIES CALCULATION
------------------------------------------------------------------------------

Dipole Moment Calculation                       ... on
Quadrupole Moment Calculation                   ... off
Polarizability Calculation                      ... off
GBWName                                         ... frag_11_c00002.gbw
Electron density file                           ... frag_11_c00002.scfp.tmp
The origin for moment calculation is the CENTER OF MASS  = (-1.002228,  0.655899 -0.228903)

-------------
DIPOLE MOMENT
-------------
                                X             Y             Z
Electronic contribution:     -3.45990       0.04762      -2.59813
Nuclear contribution   :      3.41301       0.16316       3.48235
                        -----------------------------------------
Total Dipole Moment    :     -0.04688       0.21078       0.88422
                        -----------------------------------------
Magnitude (a.u.)       :      0.91021
Magnitude (Debye)      :      2.31356


Timings for individual modules:

Sum of individual times         ...     1277.398 sec (=  21.290 min)
GTO integral calculation        ...       57.619 sec (=   0.960 min)   4.5 %
SCF iterations                  ...     1082.119 sec (=  18.035 min)  84.7 %
SCF Gradient evaluation         ...      129.073 sec (=   2.151 min)  10.1 %
Geometry relaxation             ...        8.587 sec (=   0.143 min)   0.7 %
                             ****ORCA TERMINATED NORMALLY****
TOTAL RUN TIME: 0 days 0 hours 21 minutes 46 seconds 830 msec
