
                                 *****************
                                 * O   R   C   A *
                                 *****************

           --- An Ab Initio, DFT and Semiempirical electronic structure package ---

                  #######################################################
                  #                        -***-                        #
                  #  Department of molecular theory and spectroscopy    #
                  #              Directorship: Frank Neese              #
                  # Max Planck Institute for Chemical Energy Conversion #
                  #                  D-45470 Muelheim/Ruhr              #
                  #                       Germany                       #
                  #                                                     #
                  #                  All rights reserved                #
                  #                        -***-                        #
                  #######################################################


                         Program Version 4.0.1 -  RELEASE  -


 With contributions from (in alphabetic order):
   Daniel Aravena         : Magnetic Properties
   Michael Atanasov       : Ab Initio Ligand Field Theory
   Ute Becker             : Parallelization
   Martin Brehm           : Molecular dynamics
   Dmytro Bykov           : SCF Hessian
   Vijay G. Chilkuri      : MRCI spin determinant printing
   Dipayan Datta          : RHF DLPNO-CCSD density
   Achintya Kumar Dutta   : EOM-CC, STEOM-CC
   Dmitry Ganyushin       : Spin-Orbit,Spin-Spin,Magnetic field MRCI
   Yang Guo               : DLPNO-NEVPT2, CIM, IAO-localization
   Andreas Hansen         : Spin unrestricted coupled pair/coupled cluster methods
   Lee Huntington         : MR-EOM, pCC
   Robert Izsak           : Overlap fitted RIJCOSX, COSX-SCS-MP3, EOM
   Christian Kollmar      : KDIIS, OOCD, Brueckner-CCSD(T), CCSD density
   Simone Kossmann        : Meta GGA functionals, TD-DFT gradient, OOMP2, MP2 Hessian
   Martin Krupicka        : AUTO-CI
   Dagmar Lenk            : GEPOL surface
   Dimitrios Liakos       : Extrapolation schemes; parallel MDCI
   Dimitrios Manganas     : ROCIS; embedding schemes
   Dimitrios Pantazis     : SARC Basis sets
   Taras Petrenko         : DFT Hessian,TD-DFT gradient, ASA, ECA, R-Raman, ABS, FL, XAS/XES, NRVS
   Peter Pinski           : DLPNO-MP2
   Christoph Reimann      : Effective Core Potentials
   Marius Retegan         : Local ZFS, SOC
   Christoph Riplinger    : Optimizer, TS searches, QM/MM, DLPNO-CCSD(T), (RO)-DLPNO pert. Triples
   Tobias Risthaus        : Range-separated hybrids, TD-DFT gradient, RPA, STAB
   Michael Roemelt        : Restricted open shell CIS
   Masaaki Saitow         : Open-shell DLPNO
   Barbara Sandhoefer     : DKH picture change effects
   Kantharuban Sivalingam : CASSCF convergence, NEVPT2, FIC-MRCI
   Georgi Stoychev        : AutoAux
   Boris Wezisla          : Elementary symmetry handling
   Frank Wennmohs         : Technical directorship


 We gratefully acknowledge several colleagues who have allowed us to
 interface, adapt or use parts of their codes:
   Stefan Grimme, W. Hujo, H. Kruse,             : VdW corrections, initial TS optimization,
                  C. Bannwarth                     DFT functionals, gCP, sTDA/sTD-DF
   Ed Valeev                                     : LibInt (2-el integral package), F12 methods
   Garnet Chan, S. Sharma, J. Yang, R. Olivares  : DMRG
   Ulf Ekstrom                                   : XCFun DFT Library
   Mihaly Kallay                                 : mrcc  (arbitrary order and MRCC methods)
   Andreas Klamt, Michael Diedenhofen            : otool_cosmo (COSMO solvation model)
   Jiri Pittner, Ondrej Demel                    : Mk-CCSD
   Frank Weinhold                                : gennbo (NPA and NBO analysis)
   Christopher J. Cramer and Donald G. Truhlar   : smd solvation model


 Your calculation uses the libint2 library for the computation of 2-el integrals
 For citations please refer to: http://libint.valeyev.net

 This ORCA versions uses:
   CBLAS   interface :  Fast vector & matrix operations
   LAPACKE interface :  Fast linear algebra routines
   SCALAPACK package :  Parallel linear algebra routines


Your calculation utilizes the basis: cc-pVDZ 
       H, B-Ne : Obtained from the ccRepo (grant-hill.group.shef.ac.uk/ccrepo) Feb. 2017
                 T. H. Dunning, Jr., J. Chem. Phys. 90, 1007 (1989)
            He : Obtained from the ccRepo (grant-hill.group.shef.ac.uk/ccrepo) Feb. 2017
                 D. E. Woon, T. H. Dunning, Jr., J. Chem. Phys. 100, 2975 (1994)
  Li-Be, Na-Mg : Obtained from the ccRepo (grant-hill.group.shef.ac.uk/ccrepo) Feb. 2017
                 B. P. Prascher, D. E. Woon, K. A. Peterson, T. H. Dunning, Jr., A. K. Wilson, Theor. Chem. Acc. 128, 69 (2011)
         Al-Ar : Obtained from the ccRepo (grant-hill.group.shef.ac.uk/ccrepo) Feb. 2017
                 D. E. Woon, T. H. Dunning, Jr., J. Chem. Phys. 98, 1358 (1993)
            Ca : Obtained from the Peterson Research Group Website (tyr0.chem.wsu.edu/~kipeters) Feb. 2017
                 J. Koput, K. A. Peterson, J. Phys. Chem. 106, 9595 (2002)
         Sc-Zn : Obtained from the ccRepo (grant-hill.group.shef.ac.uk/ccrepo) Feb. 2017
                 N. B. Balabanov, K. A. Peterson, J. Chem. Phys. 123, 064107 (2005)
                 N. B. Balabanov, K. A. Peterson, J. Chem. Phys. 125, 074110 (2006)
         Ga-Kr : Obtained from the ccRepo (grant-hill.group.shef.ac.uk/ccrepo) Feb. 2017
                 A. K. Wilson, D. E. Woon, K. A. Peterson, T. H. Dunning, Jr., J. Chem. Phys. 110, 7667 (1999)

Your calculation utilizes the auxiliary basis: def2/J
   F. Weigend, Phys. Chem. Chem. Phys. 8, 1057 (2006).

================================================================================
                                        WARNINGS
                       Please study these warnings very carefully!
================================================================================

Warning: TCutStore was < 0. Adjusted to Thresh (uncritical)

WARNING: Geometry Optimization
  ===> : Switching off AutoStart
         For restart on a previous wavefunction, please use MOREAD

INFO   : the flag for use of LIBINT has been found!

================================================================================
                                       INPUT FILE
================================================================================
NAME = frag_07_c00001.com
|  1> %pal nprocs 2 end
|  2> %maxcore 1000
|  3> ! b3lyp TIGHTSCF
|  4> ! cc-pvdz def2/J RIJCOSX
|  5> ! Opt
|  6> 
|  7> %geom
|  8> maxiter 60
|  9> TolE 1e-4
| 10> TolRMSG 2e-3
| 11> TolMaxG 3e-3
| 12> TolRMSD 2e-2
| 13> TolMaxD 3e-2
| 14> end
| 15> 
| 16> *xyz 0 1
| 17> C 0.3198 -0.9516 0.5248
| 18> C -0.1505 0.29 0.3459
| 19> C -1.5428 0.7314 0.6838
| 20> C -2.6462 0.0876 -0.1403
| 21> O -2.5002 -0.7944 -0.9801
| 22> H -0.3027 -1.7456 0.9266
| 23> H -1.7534 0.5359 1.7411
| 24> H -1.6193 1.814 0.5324
| 25> H -3.6572 0.4729 0.0796
| 26> H 1.3381 -1.2068 0.248
| 27> H 0.5116 1.0418 -0.0784
| 28> *
| 29> 
| 30> 
| 31>                          ****END OF INPUT****
================================================================================

                       *****************************
                       * Geometry Optimization Run *
                       *****************************

Geometry optimization settings:
Update method            Update   .... BFGS
Choice of coordinates    CoordSys .... Redundant Internals
Initial Hessian          InHess   .... Almoef's Model

Convergence Tolerances:
Energy Change            TolE     ....  1.0000e-04 Eh
Max. Gradient            TolMAXG  ....  3.0000e-03 Eh/bohr
RMS Gradient             TolRMSG  ....  2.0000e-03 Eh/bohr
Max. Displacement        TolMAXD  ....  3.0000e-02 bohr
RMS Displacement         TolRMSD  ....  2.0000e-02 bohr

------------------------------------------------------------------------------
                        ORCA OPTIMIZATION COORDINATE SETUP
------------------------------------------------------------------------------

The optimization will be done in new redundant internal coordinates
Making redundant internal coordinates   ...  (new redundants) done
Evaluating the initial hessian          ...  (Almloef) done
Evaluating the coordinates              ...  done
Calculating the B-matrix                .... done
Calculating the G-matrix                .... done
Diagonalizing the G-matrix              .... done
The first mode is                       ....   14
The number of degrees of freedom        ....   27

    -----------------------------------------------------------------
                    Redundant Internal Coordinates


    -----------------------------------------------------------------
         Definition                    Initial Value    Approx d2E/dq
    -----------------------------------------------------------------
      1. B(C   1,C   0)                  1.3397         0.751643   
      2. B(C   2,C   1)                  1.4992         0.418375   
      3. B(C   3,C   2)                  1.5202         0.387221   
      4. B(O   4,C   3)                  1.2266         1.019995   
      5. B(H   5,C   0)                  1.0860         0.365437   
      6. B(H   6,C   2)                  1.0957         0.352699   
      7. B(H   7,C   2)                  1.0958         0.352497   
      8. B(H   8,C   3)                  1.1041         0.341981   
      9. B(H   9,C   0)                  1.0857         0.365873   
     10. B(H  10,C   1)                  1.0879         0.362837   
     11. A(C   1,C   0,H   5)          121.7206         0.365584   
     12. A(H   5,C   0,H   9)          117.3940         0.292243   
     13. A(C   1,C   0,H   9)          120.8688         0.365658   
     14. A(C   0,C   1,H  10)          118.6119         0.365137   
     15. A(C   0,C   1,C   2)          124.6667         0.418734   
     16. A(C   2,C   1,H  10)          116.7207         0.330843   
     17. A(C   1,C   2,H   7)          108.9398         0.329266   
     18. A(C   3,C   2,H   6)          107.9410         0.325125   
     19. A(C   1,C   2,C   3)          115.2900         0.372770   
     20. A(C   1,C   2,H   6)          110.0889         0.329297   
     21. A(H   6,C   2,H   7)          107.2289         0.288925   
     22. A(C   3,C   2,H   7)          107.0267         0.325094   
     23. A(C   2,C   3,O   4)          126.1055         0.433333   
     24. A(O   4,C   3,H   8)          119.7564         0.378552   
     25. A(C   2,C   3,H   8)          114.1341         0.323482   
     26. D(C   2,C   1,C   0,H   9)    179.3474         0.040308   
     27. D(H  10,C   1,C   0,H   5)   -178.8203         0.040308   
     28. D(C   2,C   1,C   0,H   5)      0.8672         0.040308   
     29. D(H  10,C   1,C   0,H   9)     -0.3400         0.040308   
     30. D(H   6,C   2,C   1,C   0)     56.8737         0.012946   
     31. D(C   3,C   2,C   1,H  10)    114.1845         0.012946   
     32. D(H   7,C   2,C   1,H  10)     -6.1155         0.012946   
     33. D(H   7,C   2,C   1,C   0)    174.1917         0.012946   
     34. D(H   6,C   2,C   1,H  10)   -123.4336         0.012946   
     35. D(C   3,C   2,C   1,C   0)    -65.5083         0.012946   
     36. D(H   8,C   3,C   2,C   1)   -176.3076         0.011164   
     37. D(O   4,C   3,C   2,H   7)    125.7704         0.011164   
     38. D(O   4,C   3,C   2,H   6)   -119.0945         0.011164   
     39. D(H   8,C   3,C   2,H   6)     60.1685         0.011164   
     40. D(O   4,C   3,C   2,C   1)      4.4295         0.011164   
     41. D(H   8,C   3,C   2,H   7)    -54.9666         0.011164   
    -----------------------------------------------------------------

Number of atoms                         .... 11
Number of degrees of freedom            .... 41

         *************************************************************
         *                GEOMETRY OPTIMIZATION CYCLE   1            *
         *************************************************************
---------------------------------
CARTESIAN COORDINATES (ANGSTROEM)
---------------------------------
  C      0.319800   -0.951600    0.524800
  C     -0.150500    0.290000    0.345900
  C     -1.542800    0.731400    0.683800
  C     -2.646200    0.087600   -0.140300
  O     -2.500200   -0.794400   -0.980100
  H     -0.302700   -1.745600    0.926600
  H     -1.753400    0.535900    1.741100
  H     -1.619300    1.814000    0.532400
  H     -3.657200    0.472900    0.079600
  H      1.338100   -1.206800    0.248000
  H      0.511600    1.041800   -0.078400

----------------------------
CARTESIAN COORDINATES (A.U.)
----------------------------
  NO LB      ZA    FRAG     MASS         X           Y           Z
   0 C     6.0000    0    12.011    0.604334   -1.798263    0.991728
   1 C     6.0000    0    12.011   -0.284404    0.548021    0.653656
   2 C     6.0000    0    12.011   -2.915469    1.382146    1.292195
   3 C     6.0000    0    12.011   -5.000593    0.165540   -0.265129
   4 O     8.0000    0    15.999   -4.724693   -1.501198   -1.852121
   5 H     1.0000    0     1.008   -0.572020   -3.298706    1.751020
   6 H     1.0000    0     1.008   -3.313446    1.012704    3.290202
   7 H     1.0000    0     1.008   -3.060034    3.427963    1.006090
   8 H     1.0000    0     1.008   -6.911106    0.893651    0.150422
   9 H     1.0000    0     1.008    2.528643   -2.280521    0.468652
  10 H     1.0000    0     1.008    0.966784    1.968717   -0.148155

--------------------------------
INTERNAL COORDINATES (ANGSTROEM)
--------------------------------
 C      0   0   0     0.000000000000     0.00000000     0.00000000
 C      1   0   0     1.339685731804     0.00000000     0.00000000
 C      2   1   0     1.499169656843   124.66670935     0.00000000
 C      3   2   1     1.520233801098   115.29001123   294.49169320
 O      4   3   2     1.226582259777   126.10550510     4.42948351
 H      1   2   3     1.085995161131   121.72064868     0.86715733
 H      3   2   1     1.095653184178   110.08890333    56.87366476
 H      3   2   1     1.095808820005   108.93981515   174.19169202
 H      4   3   2     1.104053033147   114.13411660   183.69244428
 H      1   2   3     1.085670378154   120.86876660   179.34740729
 H      2   1   3     1.087938481717   118.61187546   180.31258737

---------------------------
INTERNAL COORDINATES (A.U.)
---------------------------
 C      0   0   0     0.000000000000     0.00000000     0.00000000
 C      1   0   0     2.531639138632     0.00000000     0.00000000
 C      2   1   0     2.833020079719   124.66670935     0.00000000
 C      3   2   1     2.872825543605   115.29001123   294.49169320
 O      4   3   2     2.317904551705   126.10550510     4.42948351
 H      1   2   3     2.052233437301   121.72064868     0.86715733
 H      3   2   1     2.070484455856   110.08890333    56.87366476
 H      3   2   1     2.070778564944   108.93981515   174.19169202
 H      4   3   2     2.086357869972   114.13411660   183.69244428
 H      1   2   3     2.051619686421   120.86876660   179.34740729
 H      2   1   3     2.055905780999   118.61187546   180.31258737

---------------------
BASIS SET INFORMATION
---------------------
There are 3 groups of distinct atoms

 Group   1 Type C   : 17s4p1d contracted to 3s2p1d pattern {881/31/1}
 Group   2 Type O   : 17s4p1d contracted to 3s2p1d pattern {881/31/1}
 Group   3 Type H   : 4s1p contracted to 2s1p pattern {31/1}

Atom   0C    basis set group =>   1
Atom   1C    basis set group =>   1
Atom   2C    basis set group =>   1
Atom   3C    basis set group =>   1
Atom   4O    basis set group =>   2
Atom   5H    basis set group =>   3
Atom   6H    basis set group =>   3
Atom   7H    basis set group =>   3
Atom   8H    basis set group =>   3
Atom   9H    basis set group =>   3
Atom  10H    basis set group =>   3
-------------------------------
AUXILIARY BASIS SET INFORMATION
-------------------------------
There are 3 groups of distinct atoms

 Group   1 Type C   : 12s5p4d2f1g contracted to 6s4p3d1f1g pattern {711111/2111/211/2/1}
 Group   2 Type O   : 12s5p4d2f1g contracted to 6s4p3d1f1g pattern {711111/2111/211/2/1}
 Group   3 Type H   : 5s2p1d contracted to 3s1p1d pattern {311/2/1}

Atom   0C    basis set group =>   1
Atom   1C    basis set group =>   1
Atom   2C    basis set group =>   1
Atom   3C    basis set group =>   1
Atom   4O    basis set group =>   2
Atom   5H    basis set group =>   3
Atom   6H    basis set group =>   3
Atom   7H    basis set group =>   3
Atom   8H    basis set group =>   3
Atom   9H    basis set group =>   3
Atom  10H    basis set group =>   3


           ************************************************************
           *        Program running with 2 parallel MPI-processes     *
           *              working on a common directory               *
           ************************************************************
------------------------------------------------------------------------------
                           ORCA GTO INTEGRAL CALCULATION
                           -- RI-GTO INTEGRALS CHOSEN --
------------------------------------------------------------------------------

                         BASIS SET STATISTICS AND STARTUP INFO

Gaussian basis set:
 # of primitive gaussian shells          ...  140
 # of primitive gaussian functions       ...  212
 # of contracted shells                  ...   48
 # of contracted basis functions         ...  100
 Highest angular momentum                ...    2
 Maximum contraction depth               ...    8
Auxiliary gaussian basis set:
 # of primitive gaussian shells          ...  168
 # of primitive gaussian functions       ...  446
 # of contracted shells                  ...  105
 # of contracted aux-basis functions     ...  311
 Highest angular momentum                ...    4
 Maximum contraction depth               ...    7
Ratio of auxiliary to basis functions    ...  3.11
Integral package used                  ... LIBINT
 One Electron integrals                  ... done
 Ordering auxiliary basis shells         ... done
 Integral threshhold             Thresh  ...  2.500e-11
 Primitive cut-off               TCut    ...  2.500e-12
 Pre-screening matrix                    ... done
 Shell pair data                         ... 
 Ordering of the shell pairs             ... done (   0.000 sec) 1175 of 1176 pairs
 Determination of significant pairs      ... done (   0.000 sec)
 Creation of shell pair data             ... done (   0.001 sec)
 Storage of shell pair data              ... done (   0.374 sec)
 Shell pair data done in (   0.375 sec)
 Computing two index integrals           ... done
 Cholesky decomposition of the V-matrix  ... done


Timings:
 Total evaluation time                   ...   3.461 sec (  0.058 min)
 One electron matrix time                ...   1.623 sec (  0.027 min) = 46.9%
 Schwartz matrix evaluation time         ...   0.192 sec (  0.003 min) =  5.5%
 Two index repulsion integral time       ...   0.501 sec (  0.008 min) = 14.5%
 Cholesky decomposition of V             ...   0.568 sec (  0.009 min) = 16.4%
 Three index repulsion integral time     ...   0.000 sec (  0.000 min) =  0.0%



           ************************************************************
           *        Program running with 2 parallel MPI-processes     *
           *              working on a common directory               *
           ************************************************************
-------------------------------------------------------------------------------
                                 ORCA SCF
-------------------------------------------------------------------------------

------------
SCF SETTINGS
------------
Hamiltonian:
 Density Functional     Method          .... DFT(GTOs)
 Exchange Functional    Exchange        .... B88
   X-Alpha parameter    XAlpha          ....  0.666667
   Becke's b parameter  XBeta           ....  0.004200
 Correlation Functional Correlation     .... LYP
 LDA part of GGA corr.  LDAOpt          .... VWN-5
 Gradients option       PostSCFGGA      .... off
 Hybrid DFT is turned on
   Fraction HF Exchange ScalHFX         ....  0.200000
   Scaling of DF-GGA-X  ScalDFX         ....  0.720000
   Scaling of DF-GGA-C  ScalDFC         ....  0.810000
   Scaling of DF-LDA-C  ScalLDAC        ....  1.000000
   Perturbative correction              ....  0.000000
   NL short-range parameter             ....  4.800000
 RI-approximation to the Coulomb term is turned on
   Number of auxiliary basis functions  .... 311
   RIJ-COSX (HFX calculated with COS-X)).... on


General Settings:
 Integral files         IntName         .... frag_07_c00001
 Hartree-Fock type      HFTyp           .... RHF
 Total Charge           Charge          ....    0
 Multiplicity           Mult            ....    1
 Number of Electrons    NEL             ....   38
 Basis Dimension        Dim             ....  100
 Nuclear Repulsion      ENuc            ....    158.5853618566 Eh

Convergence Acceleration:
 DIIS                   CNVDIIS         .... on
   Start iteration      DIISMaxIt       ....    12
   Startup error        DIISStart       ....  0.200000
   # of expansion vecs  DIISMaxEq       ....     5
   Bias factor          DIISBfac        ....   1.050
   Max. coefficient     DIISMaxC        ....  10.000
 Newton-Raphson         CNVNR           .... off
 SOSCF                  CNVSOSCF        .... on
   Start iteration      SOSCFMaxIt      ....   150
   Startup grad/error   SOSCFStart      ....  0.003300
 Level Shifting         CNVShift        .... on
   Level shift para.    LevelShift      ....    0.2500
   Turn off err/grad.   ShiftErr        ....    0.0010
 Zerner damping         CNVZerner       .... off
 Static damping         CNVDamp         .... on
   Fraction old density DampFac         ....    0.7000
   Max. Damping (<1)    DampMax         ....    0.9800
   Min. Damping (>=0)   DampMin         ....    0.0000
   Turn off err/grad.   DampErr         ....    0.1000
 Fernandez-Rico         CNVRico         .... off

SCF Procedure:
 Maximum # iterations   MaxIter         ....   125
 SCF integral mode      SCFMode         .... Direct
   Integral package                     .... LIBINT
 Reset frequeny         DirectResetFreq ....    20
 Integral Threshold     Thresh          ....  2.500e-11 Eh
 Primitive CutOff       TCut            ....  2.500e-12 Eh

Convergence Tolerance:
 Convergence Check Mode ConvCheckMode   .... Total+1el-Energy
 Convergence forced     ConvForced      .... 0
 Energy Change          TolE            ....  1.000e-08 Eh
 1-El. energy change                    ....  1.000e-05 Eh
 Orbital Gradient       TolG            ....  1.000e-05
 Orbital Rotation angle TolX            ....  1.000e-05
 DIIS Error             TolErr          ....  5.000e-07


Diagonalization of the overlap matrix:
Smallest eigenvalue                        ... 3.372e-03
Time for diagonalization                   ...    0.003 sec
Threshold for overlap eigenvalues          ... 1.000e-08
Number of eigenvalues below threshold      ... 0
Time for construction of square roots      ...    0.478 sec
Total time needed                          ...    0.481 sec

-------------------
DFT GRID GENERATION
-------------------

General Integration Accuracy     IntAcc      ...  4.340
Radial Grid Type                 RadialGrid  ... Gauss-Chebyshev
Angular Grid (max. acc.)         AngularGrid ... Lebedev-110
Angular grid pruning method      GridPruning ... 3 (G Style)
Weight generation scheme         WeightScheme... Becke
Basis function cutoff            BFCut       ...    1.0000e-11
Integration weight cutoff        WCut        ...    1.0000e-14
Grids for H and He will be reduced by one unit

# of grid points (after initial pruning)     ...  13104 (   0.1 sec)
# of grid points (after weights+screening)   ...  12398 (   0.0 sec)
nearest neighbour list constructed           ...    0.0 sec
Grid point re-assignment to atoms done       ...    0.0 sec
Grid point division into batches done        ...    0.0 sec
Reduced shell lists constructed in    0.1 sec

Total number of grid points                  ...    12398
Total number of batches                      ...      201
Average number of points per batch           ...       61
Average number of grid points per atom       ...     1127
Average number of shells per batch           ...    43.64 (90.91%)
Average number of basis functions per batch  ...    89.89 (89.89%)
Average number of large shells per batch     ...    36.64 (83.96%)
Average number of large basis fcns per batch ...    75.52 (84.01%)
Maximum spatial batch extension              ...  19.49, 16.06, 18.43 au
Average spatial batch extension              ...   1.60,  1.60,  1.68 au

Time for grid setup =    1.655 sec

------------------------------
INITIAL GUESS: MODEL POTENTIAL
------------------------------
Loading Hartree-Fock densities                     ... done
Calculating cut-offs                               ... done
Setting up the integral package                    ... done
Initializing the effective Hamiltonian             ... done
Starting the Coulomb interaction                   ... done (   0.0 sec)
Reading the grid                                   ... done
Mapping shells                                     ... done
Starting the XC term evaluation                    ... done (   0.1 sec)
  promolecular density results
     # of electrons  =     37.999364169
     EX              =    -30.474729821
     EC              =     -1.252182669
     EX+EC           =    -31.726912490
Transforming the Hamiltonian                       ... done (   0.2 sec)
Diagonalizing the Hamiltonian                      ... done (   0.0 sec)
Back transforming the eigenvectors                 ... done (   0.0 sec)
Now organizing SCF variables                       ... done
                      ------------------
                      INITIAL GUESS DONE (   2.1 sec)
                      ------------------
--------------------
COSX GRID GENERATION
--------------------

General Integration Accuracy     IntAcc      ...  3.340
Radial Grid Type                 RadialGrid  ... Gauss-Chebyshev
Angular Grid (max. acc.)         AngularGrid ... Lebedev-50
Angular grid pruning method      GridPruning ... 3 (G Style)
Weight generation scheme         WeightScheme... Becke
Basis function cutoff            BFCut       ...    1.0000e-11
Integration weight cutoff        WCut        ...    1.0000e-14
Grids for H and He will be reduced by one unit

# of grid points (after initial pruning)     ...   4820 (   0.1 sec)
# of grid points (after weights+screening)   ...   4569 (   0.0 sec)
nearest neighbour list constructed           ...    0.0 sec
Grid point re-assignment to atoms done       ...    0.0 sec
Grid point division into batches done        ...    0.0 sec
Reduced shell lists constructed in    0.0 sec

Total number of grid points                  ...     4569
Total number of batches                      ...       77
Average number of points per batch           ...       59
Average number of grid points per atom       ...      415
Average number of shells per batch           ...    45.08 (93.91%)
Average number of basis functions per batch  ...    93.12 (93.12%)
Average number of large shells per batch     ...    38.85 (86.19%)
Average number of large basis fcns per batch ...    80.55 (86.50%)
Maximum spatial batch extension              ...  13.79, 17.82, 20.01 au
Average spatial batch extension              ...   1.99,  1.90,  2.18 au

Overlap Fitting                  UseSFitting ... on
Constructing numerical overlap ... done (      0.0 sec)
Inverting numerical overlap    ... done (      0.0 sec)
Obtaining analytic overlap     ... done (      0.1 sec)
Final contraction and storage  ... done (      0.5 sec)


General Integration Accuracy     IntAcc      ...  3.670
Radial Grid Type                 RadialGrid  ... Gauss-Chebyshev
Angular Grid (max. acc.)         AngularGrid ... Lebedev-50
Angular grid pruning method      GridPruning ... 3 (G Style)
Weight generation scheme         WeightScheme... Becke
Basis function cutoff            BFCut       ...    1.0000e-11
Integration weight cutoff        WCut        ...    1.0000e-14
Grids for H and He will be reduced by one unit

# of grid points (after initial pruning)     ...   6170 (   0.0 sec)
# of grid points (after weights+screening)   ...   5851 (   0.0 sec)
nearest neighbour list constructed           ...    0.0 sec
Grid point re-assignment to atoms done       ...    0.0 sec
Grid point division into batches done        ...    0.0 sec
Reduced shell lists constructed in    0.0 sec

Total number of grid points                  ...     5851
Total number of batches                      ...       97
Average number of points per batch           ...       60
Average number of grid points per atom       ...      532
Average number of shells per batch           ...    44.90 (93.54%)
Average number of basis functions per batch  ...    92.74 (92.74%)
Average number of large shells per batch     ...    37.90 (84.41%)
Average number of large basis fcns per batch ...    78.46 (84.60%)
Maximum spatial batch extension              ...  14.59, 19.98, 22.30 au
Average spatial batch extension              ...   1.90,  1.92,  2.07 au

Overlap Fitting                  UseSFitting ... on
Constructing numerical overlap ... done (      0.0 sec)
Inverting numerical overlap    ... done (      0.0 sec)
Obtaining analytic overlap     ... done (      0.1 sec)
Final contraction and storage  ... done (      0.4 sec)


General Integration Accuracy     IntAcc      ...  4.010
Radial Grid Type                 RadialGrid  ... Gauss-Chebyshev
Angular Grid (max. acc.)         AngularGrid ... Lebedev-110
Angular grid pruning method      GridPruning ... 3 (G Style)
Weight generation scheme         WeightScheme... Becke
Basis function cutoff            BFCut       ...    1.0000e-11
Integration weight cutoff        WCut        ...    1.0000e-14
Grids for H and He will be reduced by one unit

# of grid points (after initial pruning)     ...  11302 (   0.0 sec)
# of grid points (after weights+screening)   ...  10711 (   0.0 sec)
nearest neighbour list constructed           ...    0.0 sec
Grid point re-assignment to atoms done       ...    0.0 sec
Grid point division into batches done        ...    0.0 sec
Reduced shell lists constructed in    0.1 sec

Total number of grid points                  ...    10711
Total number of batches                      ...      172
Average number of points per batch           ...       62
Average number of grid points per atom       ...      974
Average number of shells per batch           ...    43.92 (91.50%)
Average number of basis functions per batch  ...    90.43 (90.43%)
Average number of large shells per batch     ...    36.93 (84.09%)
Average number of large basis fcns per batch ...    76.22 (84.29%)
Maximum spatial batch extension              ...  19.33, 15.58, 17.47 au
Average spatial batch extension              ...   1.69,  1.69,  1.76 au

Overlap Fitting                  UseSFitting ... on
Constructing numerical overlap ... done (      0.0 sec)
Inverting numerical overlap    ... done (      0.0 sec)
Obtaining analytic overlap     ... done (      0.1 sec)
Final contraction and storage  ... done (      0.5 sec)

Time for X-Grid setup             =    7.371 sec
--------------
SCF ITERATIONS
--------------
ITER       Energy         Delta-E        Max-DP      RMS-DP      [F,P]     Damp
               ***  Starting incremental Fock matrix formation  ***
  0   -230.9145891990   0.000000000000 0.08988428  0.00344615  0.2392171 0.7000
  1   -230.9991809812  -0.084591782214 0.05398396  0.00221385  0.0820404 0.7000
                               ***Turning on DIIS***
  2   -231.0283817772  -0.029200796004 0.05721391  0.00307487  0.0342814 0.0000
  3   -231.0788163696  -0.050434592352 0.04402992  0.00163591  0.0431413 0.0000
  4   -231.0883991590  -0.009582789438 0.01143542  0.00047438  0.0251442 0.0000
  5   -231.0896212608  -0.001222101813 0.00300198  0.00013235  0.0037486 0.0000
                      *** Initiating the SOSCF procedure ***
                           *** Shutting down DIIS ***
                      *** Re-Reading the Fockian *** 
                      *** Removing any level shift *** 
ITER      Energy       Delta-E        Grad      Rot      Max-DP    RMS-DP
  6   -231.08966383  -0.0000425686  0.000193  0.000193  0.001790  0.000075
               *** Restarting incremental Fock matrix formation ***
  7   -231.08966536  -0.0000015342  0.000102  0.000204  0.000592  0.000021
  8   -231.08966515   0.0000002105  0.000177  0.000206  0.000308  0.000012
  9   -231.08966558  -0.0000004240  0.000044  0.000078  0.000162  0.000005
 10   -231.08966555   0.0000000306  0.000050  0.000048  0.000096  0.000003
 11   -231.08966561  -0.0000000669  0.000009  0.000030  0.000033  0.000001
 12   -231.08966561   0.0000000038  0.000015  0.000020  0.000021  0.000001
                  ***Gradient check signals convergence***
              ***Rediagonalizing the Fockian in SOSCF/NRSCF***

               *****************************************************
               *                     SUCCESS                       *
               *           SCF CONVERGED AFTER  13 CYCLES          *
               *****************************************************

Setting up the final grid:

General Integration Accuracy     IntAcc      ...  4.670
Radial Grid Type                 RadialGrid  ... Gauss-Chebyshev
Angular Grid (max. acc.)         AngularGrid ... Lebedev-302
Angular grid pruning method      GridPruning ... 3 (G Style)
Weight generation scheme         WeightScheme... Becke
Basis function cutoff            BFCut       ...    1.0000e-11
Integration weight cutoff        WCut        ...    1.0000e-14
Grids for H and He will be reduced by one unit

# of grid points (after initial pruning)     ...  51424 (   0.0 sec)
# of grid points (after weights+screening)   ...  48281 (   0.1 sec)
nearest neighbour list constructed           ...    0.0 sec
Grid point re-assignment to atoms done       ...    0.0 sec
Grid point division into batches done        ...    0.2 sec
Reduced shell lists constructed in    0.4 sec

Total number of grid points                  ...    48281
Total number of batches                      ...      762
Average number of points per batch           ...       63
Average number of grid points per atom       ...     4389
Average number of shells per batch           ...    41.45 (86.35%)
Average number of basis functions per batch  ...    85.12 (85.12%)
Average number of large shells per batch     ...    33.86 (81.70%)
Average number of large basis fcns per batch ...    69.66 (81.84%)
Maximum spatial batch extension              ...  16.92, 17.74, 19.21 au
Average spatial batch extension              ...   1.07,  1.04,  1.06 au

Final grid set up in    1.3 sec
Final integration                            ... done (   2.0 sec)
Change in XC energy                          ...     0.000528858
Integrated number of electrons               ...    37.999993794
Previous integrated no of electrons          ...    38.001107935
Old exchange energy                            =     -6.206292782 Eh
New exchange energy                            =     -6.205819294 Eh
Exchange energy change after final integration =      0.000473488 Eh
Total energy after final integration           =   -231.088663268 Eh
Final COS-X integration done in                =     1.597 sec

----------------
TOTAL SCF ENERGY
----------------

Total Energy       :         -231.08866327 Eh           -6288.24222 eV

Components:
Nuclear Repulsion  :          158.58536186 Eh            4315.32708 eV
Electronic Energy  :         -389.67402512 Eh          -10603.56930 eV
One Electron Energy:         -626.32738952 Eh          -17043.23473 eV
Two Electron Energy:          236.65336439 Eh            6439.66543 eV

Virial components:
Potential Energy   :         -460.67197719 Eh          -12535.52179 eV
Kinetic Energy     :          229.58331393 Eh            6247.27958 eV
Virial Ratio       :            2.00655688


DFT components:
N(Alpha)           :       18.999996896840 electrons
N(Beta)            :       18.999996896840 electrons
N(Total)           :       37.999993793679 electrons
E(X)               :      -24.647859089491 Eh       
E(C)               :       -1.486684268708 Eh       
E(XC)              :      -26.134543358199 Eh       

---------------
SCF CONVERGENCE
---------------

  Last Energy change         ...   -3.9544e-09  Tolerance :   1.0000e-08
  Last MAX-Density change    ...    1.2779e-13  Tolerance :   1.0000e-07
  Last RMS-Density change    ...    1.6806e-15  Tolerance :   5.0000e-09
  Last Orbital Gradient      ...    2.9279e-07  Tolerance :   1.0000e-05
  Last Orbital Rotation      ...    4.4873e-07  Tolerance :   1.0000e-05

             **** THE GBW FILE WAS UPDATED (frag_07_c00001.gbw) ****
             **** DENSITY FILE WAS UPDATED (frag_07_c00001.scfp.tmp) ****
             **** ENERGY FILE WAS UPDATED (frag_07_c00001.en.tmp) ****
----------------
ORBITAL ENERGIES
----------------

  NO   OCC          E(Eh)            E(eV) 
   0   2.0000     -19.141186      -520.8581 
   1   2.0000     -10.278972      -279.7050 
   2   2.0000     -10.204966      -277.6912 
   3   2.0000     -10.191445      -277.3233 
   4   2.0000     -10.180615      -277.0286 
   5   2.0000      -1.037631       -28.2354 
   6   2.0000      -0.803104       -21.8536 
   7   2.0000      -0.719396       -19.5758 
   8   2.0000      -0.601466       -16.3667 
   9   2.0000      -0.540245       -14.7008 
  10   2.0000      -0.485784       -13.2188 
  11   2.0000      -0.468772       -12.7559 
  12   2.0000      -0.437923       -11.9165 
  13   2.0000      -0.425629       -11.5820 
  14   2.0000      -0.393628       -10.7112 
  15   2.0000      -0.361327        -9.8322 
  16   2.0000      -0.347834        -9.4651 
  17   2.0000      -0.262685        -7.1480 
  18   2.0000      -0.251778        -6.8512 
  19   0.0000      -0.026218        -0.7134 
  20   0.0000       0.002990         0.0814 
  21   0.0000       0.063874         1.7381 
  22   0.0000       0.094200         2.5633 
  23   0.0000       0.102856         2.7989 
  24   0.0000       0.113910         3.0997 
  25   0.0000       0.139568         3.7978 
  26   0.0000       0.153152         4.1675 
  27   0.0000       0.223499         6.0817 
  28   0.0000       0.267513         7.2794 
  29   0.0000       0.298997         8.1361 
  30   0.0000       0.317047         8.6273 
  31   0.0000       0.412813        11.2332 
  32   0.0000       0.430641        11.7183 
  33   0.0000       0.471183        12.8215 
  34   0.0000       0.488634        13.2964 
  35   0.0000       0.497609        13.5406 
  36   0.0000       0.514492        14.0000 
  37   0.0000       0.547824        14.9070 
  38   0.0000       0.570306        15.5188 
  39   0.0000       0.574722        15.6390 
  40   0.0000       0.596575        16.2336 
  41   0.0000       0.620372        16.8812 
  42   0.0000       0.639582        17.4039 
  43   0.0000       0.657019        17.8784 
  44   0.0000       0.665781        18.1168 
  45   0.0000       0.683960        18.6115 
  46   0.0000       0.722958        19.6727 
  47   0.0000       0.757521        20.6132 
  48   0.0000       0.801502        21.8100 
  49   0.0000       0.850165        23.1342 
  50   0.0000       0.883077        24.0297 
  51   0.0000       0.978575        26.6284 
  52   0.0000       0.989721        26.9317 
  53   0.0000       1.017845        27.6970 
  54   0.0000       1.025218        27.8976 
  55   0.0000       1.038805        28.2673 
  56   0.0000       1.102259        29.9940 
  57   0.0000       1.132671        30.8215 
  58   0.0000       1.165723        31.7209 
  59   0.0000       1.247774        33.9537 
  60   0.0000       1.252252        34.0755 
  61   0.0000       1.396507        38.0009 
  62   0.0000       1.415821        38.5265 
  63   0.0000       1.448240        39.4086 
  64   0.0000       1.479745        40.2659 
  65   0.0000       1.491824        40.5946 
  66   0.0000       1.511968        41.1427 
  67   0.0000       1.538848        41.8742 
  68   0.0000       1.614776        43.9403 
  69   0.0000       1.641173        44.6586 
  70   0.0000       1.646143        44.7938 
  71   0.0000       1.667136        45.3651 
  72   0.0000       1.675283        45.5868 
  73   0.0000       1.695125        46.1267 
  74   0.0000       1.709081        46.5065 
  75   0.0000       1.732009        47.1304 
  76   0.0000       1.817975        49.4696 
  77   0.0000       1.830465        49.8095 
  78   0.0000       1.864623        50.7390 
  79   0.0000       1.903004        51.7834 
  80   0.0000       1.954877        53.1949 
  81   0.0000       1.972988        53.6877 
  82   0.0000       2.003435        54.5162 
  83   0.0000       2.090144        56.8757 
  84   0.0000       2.193760        59.6952 
  85   0.0000       2.226230        60.5788 
  86   0.0000       2.279103        62.0175 
  87   0.0000       2.285306        62.1863 
  88   0.0000       2.394146        65.1480 
  89   0.0000       2.422972        65.9324 
  90   0.0000       2.451785        66.7165 
  91   0.0000       2.497746        67.9671 
  92   0.0000       2.569030        69.9069 
  93   0.0000       2.704737        73.5996 
  94   0.0000       2.717800        73.9551 
  95   0.0000       2.783810        75.7513 
  96   0.0000       2.983829        81.1941 
  97   0.0000       3.095857        84.2426 
  98   0.0000       3.328567        90.5749 
  99   0.0000       3.422929        93.1426 

                    ********************************
                    * MULLIKEN POPULATION ANALYSIS *
                    ********************************

-----------------------
MULLIKEN ATOMIC CHARGES
-----------------------
   0 C :    0.054152
   1 C :   -0.086113
   2 C :   -0.016082
   3 C :    0.159817
   4 O :   -0.192122
   5 H :    0.005661
   6 H :    0.051369
   7 H :    0.039252
   8 H :   -0.016300
   9 H :    0.014143
  10 H :   -0.013778
Sum of atomic charges:   -0.0000000

--------------------------------
MULLIKEN REDUCED ORBITAL CHARGES
--------------------------------
  0 C s       :     3.048855  s :     3.048855
      pz      :     0.975497  p :     2.854248
      px      :     0.902947
      py      :     0.975804
      dz2     :     0.001218  d :     0.042745
      dxz     :     0.001923
      dyz     :     0.009626
      dx2y2   :     0.014041
      dxy     :     0.015937
  1 C s       :     3.140978  s :     3.140978
      pz      :     0.977711  p :     2.880105
      px      :     0.921471
      py      :     0.980923
      dz2     :     0.004185  d :     0.065031
      dxz     :     0.008743
      dyz     :     0.009926
      dx2y2   :     0.017766
      dxy     :     0.024411
  2 C s       :     3.025237  s :     3.025237
      pz      :     0.986771  p :     2.928274
      px      :     0.954693
      py      :     0.986809
      dz2     :     0.012620  d :     0.062571
      dxz     :     0.015232
      dyz     :     0.003943
      dx2y2   :     0.018481
      dxy     :     0.012294
  3 C s       :     3.126235  s :     3.126235
      pz      :     0.822487  p :     2.571841
      px      :     0.931058
      py      :     0.818296
      dz2     :     0.030228  d :     0.142107
      dxz     :     0.031214
      dyz     :     0.020935
      dx2y2   :     0.023570
      dxy     :     0.036160
  4 O s       :     3.760676  s :     3.760676
      pz      :     1.321334  p :     4.413553
      px      :     1.783148
      py      :     1.309072
      dz2     :     0.004448  d :     0.017893
      dxz     :     0.001996
      dyz     :     0.006072
      dx2y2   :     0.003221
      dxy     :     0.002156
  5 H s       :     0.964210  s :     0.964210
      pz      :     0.007551  p :     0.030129
      px      :     0.009877
      py      :     0.012701
  6 H s       :     0.919393  s :     0.919393
      pz      :     0.017296  p :     0.029238
      px      :     0.005289
      py      :     0.006652
  7 H s       :     0.931891  s :     0.931891
      pz      :     0.006408  p :     0.028856
      px      :     0.004873
      py      :     0.017575
  8 H s       :     0.990650  s :     0.990650
      pz      :     0.003533  p :     0.025650
      px      :     0.017424
      py      :     0.004693
  9 H s       :     0.955641  s :     0.955641
      pz      :     0.006945  p :     0.030217
      px      :     0.017197
      py      :     0.006075
 10 H s       :     0.984821  s :     0.984821
      pz      :     0.008258  p :     0.028957
      px      :     0.009564
      py      :     0.011134


                     *******************************
                     * LOEWDIN POPULATION ANALYSIS *
                     *******************************

----------------------
LOEWDIN ATOMIC CHARGES
----------------------
   0 C :   -0.034460
   1 C :   -0.034196
   2 C :   -0.079008
   3 C :   -0.005163
   4 O :   -0.011995
   5 H :    0.020518
   6 H :    0.052270
   7 H :    0.048046
   8 H :   -0.005901
   9 H :    0.025398
  10 H :    0.024490

-------------------------------
LOEWDIN REDUCED ORBITAL CHARGES
-------------------------------
  0 C s       :     2.843414  s :     2.843414
      pz      :     0.966175  p :     3.046676
      px      :     1.022599
      py      :     1.057902
      dz2     :     0.008951  d :     0.144370
      dxz     :     0.007752
      dyz     :     0.026022
      dx2y2   :     0.047574
      dxy     :     0.054070
  1 C s       :     2.829025  s :     2.829025
      pz      :     0.952390  p :     3.010489
      px      :     0.989865
      py      :     1.068233
      dz2     :     0.013423  d :     0.194682
      dxz     :     0.022106
      dyz     :     0.029284
      dx2y2   :     0.056850
      dxy     :     0.073020
  2 C s       :     2.801374  s :     2.801374
      pz      :     1.036721  p :     3.091258
      px      :     1.022618
      py      :     1.031919
      dz2     :     0.042391  d :     0.186376
      dxz     :     0.043340
      dyz     :     0.011983
      dx2y2   :     0.055790
      dxy     :     0.032874
  3 C s       :     2.881224  s :     2.881224
      pz      :     0.868734  p :     2.756905
      px      :     1.015647
      py      :     0.872524
      dz2     :     0.063350  d :     0.367034
      dxz     :     0.086326
      dyz     :     0.063167
      dx2y2   :     0.055958
      dxy     :     0.098233
  4 O s       :     3.511534  s :     3.511534
      pz      :     1.361865  p :     4.469960
      px      :     1.750153
      py      :     1.357942
      dz2     :     0.005428  d :     0.030501
      dxz     :     0.003433
      dyz     :     0.012637
      dx2y2   :     0.005170
      dxy     :     0.003833
  5 H s       :     0.897324  s :     0.897324
      pz      :     0.022120  p :     0.082158
      px      :     0.027878
      py      :     0.032160
  6 H s       :     0.866586  s :     0.866586
      pz      :     0.045591  p :     0.081143
      px      :     0.017707
      py      :     0.017845
  7 H s       :     0.872138  s :     0.872138
      pz      :     0.017556  p :     0.079816
      px      :     0.016178
      py      :     0.046082
  8 H s       :     0.928136  s :     0.928136
      pz      :     0.012292  p :     0.077764
      px      :     0.049827
      py      :     0.015645
  9 H s       :     0.892502  s :     0.892502
      pz      :     0.020578  p :     0.082101
      px      :     0.045220
      py      :     0.016302
 10 H s       :     0.894319  s :     0.894319
      pz      :     0.023245  p :     0.081191
      px      :     0.028564
      py      :     0.029382


                      *****************************
                      * MAYER POPULATION ANALYSIS *
                      *****************************

  NA   - Mulliken gross atomic population
  ZA   - Total nuclear charge
  QA   - Mulliken gross atomic charge
  VA   - Mayer's total valence
  BVA  - Mayer's bonded valence
  FA   - Mayer's free valence

  ATOM       NA         ZA         QA         VA         BVA        FA
  0 C      5.9458     6.0000     0.0542     3.9926     3.9926    -0.0000
  1 C      6.0861     6.0000    -0.0861     4.1783     4.1783    -0.0000
  2 C      6.0161     6.0000    -0.0161     3.9040     3.9040    -0.0000
  3 C      5.8402     6.0000     0.1598     4.1884     4.1884     0.0000
  4 O      8.1921     8.0000    -0.1921     2.3290     2.3290     0.0000
  5 H      0.9943     1.0000     0.0057     0.9824     0.9824    -0.0000
  6 H      0.9486     1.0000     0.0514     0.9740     0.9740     0.0000
  7 H      0.9607     1.0000     0.0393     0.9696     0.9696    -0.0000
  8 H      1.0163     1.0000    -0.0163     0.9635     0.9635    -0.0000
  9 H      0.9859     1.0000     0.0141     0.9690     0.9690    -0.0000
 10 H      1.0138     1.0000    -0.0138     0.9770     0.9770    -0.0000

  Mayer bond orders larger than 0.1
B(  0-C ,  1-C ) :   2.0584 B(  0-C ,  5-H ) :   0.9449 B(  0-C ,  9-H ) :   0.9379 
B(  1-C ,  2-C ) :   1.0697 B(  1-C , 10-H ) :   0.9471 B(  2-C ,  3-C ) :   0.9908 
B(  2-C ,  6-H ) :   0.9182 B(  2-C ,  7-H ) :   0.9234 B(  3-C ,  4-O ) :   2.2289 
B(  3-C ,  8-H ) :   0.9195 

-------
TIMINGS
-------

Total SCF time: 0 days 0 hours 1 min 50 sec 

Total time                  ....     110.800 sec
Sum of individual times     ....      95.363 sec  ( 86.1%)

Fock matrix formation       ....      78.506 sec  ( 70.9%)
  Split-RI-J                ....       8.808 sec  ( 11.2% of F)
  Chain of spheres X        ....      14.554 sec  ( 18.5% of F)
  COS-X 1 center corr.      ....       0.000 sec  (  0.0% of F)
  XC integration            ....      22.018 sec  ( 28.0% of F)
    Basis function eval.    ....       0.726 sec  (  3.3% of XC)
    Density eval.           ....       0.306 sec  (  1.4% of XC)
    XC-Functional eval.     ....       0.147 sec  (  0.7% of XC)
    XC-Potential eval.      ....       0.493 sec  (  2.2% of XC)
Diagonalization             ....       1.880 sec  (  1.7%)
Density matrix formation    ....       0.073 sec  (  0.1%)
Population analysis         ....       2.095 sec  (  1.9%)
Initial guess               ....       0.439 sec  (  0.4%)
Orbital Transformation      ....       0.000 sec  (  0.0%)
Orbital Orthonormalization  ....       0.000 sec  (  0.0%)
DIIS solution               ....       1.024 sec  (  0.9%)
SOSCF solution              ....       1.010 sec  (  0.9%)
Grid generation             ....      10.335 sec  (  9.3%)

-------------------------   --------------------
FINAL SINGLE POINT ENERGY      -231.088663267990
-------------------------   --------------------



           ************************************************************
           *        Program running with 2 parallel MPI-processes     *
           *              working on a common directory               *
           ************************************************************
------------------------------------------------------------------------------
                         ORCA SCF GRADIENT CALCULATION
------------------------------------------------------------------------------

Gradient of the Kohn-Sham DFT energy:
Kohn-Sham wavefunction type      ... RKS
Hartree-Fock exchange scaling    ...    0.200
Number of operators              ...    1
Number of atoms                  ...   11
Basis set dimensions             ...  100
Integral neglect threshold       ... 2.5e-11
Integral primitive cutoff        ... 2.5e-12

Nuclear repulsion gradient       ... done
One Electron Gradient            ... done
Pre-screening matrix             ... done
RI-J gradient                    ... done
COSX-gradient                    ... done
Exchange-correlation gradient    ... done

------------------
CARTESIAN GRADIENT
------------------

   1   C   :    0.003399134   -0.009583206    0.001840592
   2   C   :   -0.006245016    0.011327781   -0.001793075
   3   C   :   -0.005309918    0.004363501    0.010197951
   4   C   :   -0.007802963    0.025390109    0.020722178
   5   O   :    0.002296165   -0.021798950   -0.020626381
   6   H   :    0.002967297    0.004096407   -0.002402812
   7   H   :    0.005861593   -0.000145979   -0.006536077
   8   H   :    0.004873598   -0.006478666   -0.002389759
   9   H   :    0.008806544   -0.005134592   -0.002756454
  10   H   :   -0.004481470    0.001682755    0.000880848
  11   H   :   -0.002858952   -0.003546524    0.002445897

Difference to translation invariance:
           :    0.0015060124    0.0001726354   -0.0004170927

Norm of the cartesian gradient     ...    0.0530212321
RMS gradient                       ...    0.0092298118
MAX gradient                       ...    0.0253901086

-------
TIMINGS
-------

Total SCF gradient time            ...        6.075 sec

One electron gradient       ....       0.060 sec  (  1.0%)
Prescreening matrices       ....       0.087 sec  (  1.4%)
RI-J Coulomb gradient       ....       0.943 sec  ( 15.5%)
COSX gradient               ....       1.452 sec  ( 23.9%)
XC gradient                 ....       1.272 sec  ( 20.9%)
------------------------------------------------------------------------------
                         ORCA GEOMETRY RELAXATION STEP
------------------------------------------------------------------------------

Reading the OPT-File                    .... done
Getting information on internals        .... done
Copying old internal coords+grads       .... done
Making the new internal coordinates     .... (new redundants).... done
Validating the new internal coordinates .... (new redundants).... done
Calculating the B-matrix                .... done
Calculating the G,G- and P matrices     .... done
Transforming gradient to internals      .... done
Projecting the internal gradient        .... done
Number of atoms                         ....  11
Number of internal coordinates          ....  41
Current Energy                          ....  -231.088663268 Eh
Current gradient norm                   ....     0.053021232 Eh/bohr
Maximum allowed component of the step   ....  0.300
Current trust radius                    ....  0.300
Evaluating the initial hessian          ....  (Almloef) done
Projecting the Hessian                  .... done
Forming the augmented Hessian           .... done
Diagonalizing the augmented Hessian     .... done
Last element of RFO vector              ....  0.993714094
Lowest eigenvalues of augmented Hessian:
 -0.002474545  0.011164897  0.011205414  0.013000291  0.024120248
Length of the computed step             ....  0.112655899
The final length of the internal step   ....  0.112655899
Converting the step to cartesian space:
 Initial RMS(Int)=    0.0175938955
Transforming coordinates:
 Iter   0:  RMS(Cart)=    0.0297134837 RMS(Int)=    0.0175556586
 Iter   1:  RMS(Cart)=    0.0003631436 RMS(Int)=    0.0002658453
 Iter   2:  RMS(Cart)=    0.0000054412 RMS(Int)=    0.0000052059
 Iter   3:  RMS(Cart)=    0.0000001337 RMS(Int)=    0.0000001169
 Iter   4:  RMS(Cart)=    0.0000000026 RMS(Int)=    0.0000000027
done
Storing new coordinates                 .... done

                                .--------------------.
          ----------------------|Geometry convergence|-------------------------
          Item                value                   Tolerance       Converged
          ---------------------------------------------------------------------
          RMS gradient        0.0057902112            0.0020000000      NO
          MAX gradient        0.0299432932            0.0030000000      NO
          RMS step            0.0175938955            0.0200000000      YES
          MAX step            0.0467494809            0.0300000000      NO
          ........................................................
          Max(Bonds)      0.0157      Max(Angles)    1.06
          Max(Dihed)        2.68      Max(Improp)    0.00
          ---------------------------------------------------------------------

The optimization has not yet converged - more geometry cycles are needed


    ---------------------------------------------------------------------------
                         Redundant Internal Coordinates
                            (Angstroem and degrees)

        Definition                    Value    dE/dq     Step     New-Value
    ----------------------------------------------------------------------------
     1. B(C   1,C   0)                1.3397  0.004369 -0.0031    1.3366   
     2. B(C   2,C   1)                1.4992 -0.008768  0.0110    1.5102   
     3. B(C   3,C   2)                1.5202 -0.000219  0.0003    1.5205   
     4. B(O   4,C   3)                1.2266  0.029943 -0.0155    1.2111   
     5. B(H   5,C   0)                1.0860 -0.005359  0.0077    1.0937   
     6. B(H   6,C   2)                1.0957 -0.007363  0.0110    1.1066   
     7. B(H   7,C   2)                1.0958 -0.006387  0.0095    1.1053   
     8. B(H   8,C   3)                1.1041 -0.010233  0.0157    1.1198   
     9. B(H   9,C   0)                1.0857 -0.005002  0.0072    1.0929   
    10. B(H  10,C   1)                1.0879 -0.005288  0.0077    1.0956   
    11. A(C   1,C   0,H   5)          121.72 -0.000188    0.04    121.76   
    12. A(H   5,C   0,H   9)          117.39  0.000487   -0.08    117.31   
    13. A(C   1,C   0,H   9)          120.87 -0.000312    0.06    120.93   
    14. A(C   0,C   1,H  10)          118.61  0.000068   -0.00    118.61   
    15. A(C   0,C   1,C   2)          124.67 -0.000597    0.09    124.75   
    16. A(C   2,C   1,H  10)          116.72  0.000529   -0.08    116.64   
    17. A(C   1,C   2,H   7)          108.94 -0.002633    1.00    109.94   
    18. A(C   3,C   2,H   6)          107.94  0.004239   -1.06    106.88   
    19. A(C   1,C   2,C   3)          115.29 -0.003846    0.87    116.16   
    20. A(C   1,C   2,H   6)          110.09 -0.002016    0.55    110.64   
    21. A(H   6,C   2,H   7)          107.23  0.001794   -1.06    106.17   
    22. A(C   3,C   2,H   7)          107.03  0.003003   -0.49    106.53   
    23. A(C   2,C   3,O   4)          126.11  0.001189   -0.15    125.96   
    24. A(O   4,C   3,H   8)          119.76 -0.002226    0.34    120.10   
    25. A(C   2,C   3,H   8)          114.13  0.001032   -0.17    113.96   
    26. D(C   2,C   1,C   0,H   9)    179.35 -0.000278    0.40    179.75   
    27. D(H  10,C   1,C   0,H   5)   -178.82  0.000412   -0.58   -179.40   
    28. D(C   2,C   1,C   0,H   5)      0.87  0.000347   -0.44      0.43   
    29. D(H  10,C   1,C   0,H   9)     -0.34 -0.000214    0.26     -0.08   
    30. D(H   6,C   2,C   1,C   0)     56.87  0.000986   -1.43     55.44   
    31. D(C   3,C   2,C   1,H  10)    114.18 -0.000288   -0.97    113.22   
    32. D(H   7,C   2,C   1,H  10)     -6.12  0.000383   -1.67     -7.78   
    33. D(H   7,C   2,C   1,C   0)    174.19  0.000447   -1.81    172.39   
    34. D(H   6,C   2,C   1,H  10)   -123.43  0.000922   -1.29   -124.73   
    35. D(C   3,C   2,C   1,C   0)    -65.51 -0.000224   -1.11    -66.61   
    36. D(H   8,C   3,C   2,C   1)   -176.31  0.000176    1.19   -175.11   
    37. D(O   4,C   3,C   2,H   7)    125.77 -0.002943    0.50    126.27   
    38. D(O   4,C   3,C   2,H   6)   -119.09  0.002721   -1.50   -120.59   
    39. D(H   8,C   3,C   2,H   6)     60.17  0.002201    0.68     60.85   
    40. D(O   4,C   3,C   2,C   1)      4.43  0.000695   -0.99      3.44   
    41. D(H   8,C   3,C   2,H   7)    -54.97 -0.003462    2.68    -52.29   
    ----------------------------------------------------------------------------

         *************************************************************
         *                GEOMETRY OPTIMIZATION CYCLE   2            *
         *************************************************************
---------------------------------
CARTESIAN COORDINATES (ANGSTROEM)
---------------------------------
  C      0.339719   -0.953754    0.530543
  C     -0.139748    0.278732    0.336532
  C     -1.544054    0.719319    0.674905
  C     -2.659927    0.088145   -0.142693
  O     -2.524673   -0.768168   -0.988366
  H     -0.276916   -1.751138    0.954956
  H     -1.771027    0.516383    1.738819
  H     -1.638057    1.812782    0.543538
  H     -3.676147    0.503239    0.078406
  H      1.367629   -1.205860    0.258188
  H      0.520401    1.035520   -0.101428

----------------------------
CARTESIAN COORDINATES (A.U.)
----------------------------
  NO LB      ZA    FRAG     MASS         X           Y           Z
   0 C     6.0000    0    12.011    0.641976   -1.802335    1.002581
   1 C     6.0000    0    12.011   -0.264086    0.526727    0.635953
   2 C     6.0000    0    12.011   -2.917840    1.359315    1.275385
   3 C     6.0000    0    12.011   -5.026533    0.166570   -0.269650
   4 O     8.0000    0    15.999   -4.770940   -1.451626   -1.867741
   5 H     1.0000    0     1.008   -0.523295   -3.309172    1.804605
   6 H     1.0000    0     1.008   -3.346757    0.975822    3.285892
   7 H     1.0000    0     1.008   -3.095479    3.425661    1.027138
   8 H     1.0000    0     1.008   -6.946912    0.950984    0.148166
   9 H     1.0000    0     1.008    2.584445   -2.278744    0.487905
  10 H     1.0000    0     1.008    0.983416    1.956850   -0.191672

--------------------------------
INTERNAL COORDINATES (ANGSTROEM)
--------------------------------
 C      0   0   0     0.000000000000     0.00000000     0.00000000
 C      1   0   0     1.336619655224     0.00000000     0.00000000
 C      2   1   0     1.510194965862   124.75404735     0.00000000
 C      3   2   1     1.520531811206   116.15709702   293.38973870
 O      4   3   2     1.211085164137   125.94515977     3.44220830
 H      1   2   3     1.093702909548   121.75902713     0.42992437
 H      3   2   1     1.106622687326   110.64854504    55.44365766
 H      3   2   1     1.105330550011   109.94159748   172.38143843
 H      4   3   2     1.119773644790   113.95120774   184.88513962
 H      1   2   3     1.092855738875   120.92648319   179.74578944
 H      2   1   3     1.095597873806   118.60824038   180.17215690

---------------------------
INTERNAL COORDINATES (A.U.)
---------------------------
 C      0   0   0     0.000000000000     0.00000000     0.00000000
 C      1   0   0     2.525845093589     0.00000000     0.00000000
 C      2   1   0     2.853854894307   124.75404735     0.00000000
 C      3   2   1     2.873388701095   116.15709702   293.38973870
 O      4   3   2     2.288619285075   125.94515977     3.44220830
 H      1   2   3     2.066798970918   121.75902713     0.42992437
 H      3   2   1     2.091213812630   110.64854504    55.44365766
 H      3   2   1     2.088772026977   109.94159748   172.38143843
 H      4   3   2     2.116065520636   113.95120774   184.88513962
 H      1   2   3     2.065198050357   120.92648319   179.74578944
 H      2   1   3     2.070379934399   118.60824038   180.17215690



           ************************************************************
           *        Program running with 2 parallel MPI-processes     *
           *              working on a common directory               *
           ************************************************************
 One Electron integrals                  ... done
 Pre-screening matrix                    ... done


           ************************************************************
           *        Program running with 2 parallel MPI-processes     *
           *              working on a common directory               *
           ************************************************************

Diagonalization of the overlap matrix:
Smallest eigenvalue                        ... 3.390e-03
Time for diagonalization                   ...    0.004 sec
Threshold for overlap eigenvalues          ... 1.000e-08
Number of eigenvalues below threshold      ... 0
Time for construction of square roots      ...    0.341 sec
Total time needed                          ...    0.345 sec

-------------------
DFT GRID GENERATION
-------------------

General Integration Accuracy     IntAcc      ...  4.340
Radial Grid Type                 RadialGrid  ... Gauss-Chebyshev
Angular Grid (max. acc.)         AngularGrid ... Lebedev-110
Angular grid pruning method      GridPruning ... 3 (G Style)
Weight generation scheme         WeightScheme... Becke
Basis function cutoff            BFCut       ...    1.0000e-11
Integration weight cutoff        WCut        ...    1.0000e-14
Grids for H and He will be reduced by one unit

# of grid points (after initial pruning)     ...  13104 (   0.0 sec)
# of grid points (after weights+screening)   ...  12411 (   0.0 sec)
nearest neighbour list constructed           ...    0.0 sec
Grid point re-assignment to atoms done       ...    0.0 sec
Grid point division into batches done        ...    0.0 sec
Reduced shell lists constructed in    0.1 sec

Total number of grid points                  ...    12411
Total number of batches                      ...      201
Average number of points per batch           ...       61
Average number of grid points per atom       ...     1128
Average number of shells per batch           ...    43.59 (90.81%)
Average number of basis functions per batch  ...    89.86 (89.86%)
Average number of large shells per batch     ...    36.37 (83.45%)
Average number of large basis fcns per batch ...    75.10 (83.57%)
Maximum spatial batch extension              ...  19.49, 16.08, 18.13 au
Average spatial batch extension              ...   1.64,  1.61,  1.66 au

Time for grid setup =    2.018 sec

--------------------
COSX GRID GENERATION
--------------------

General Integration Accuracy     IntAcc      ...  3.340
Radial Grid Type                 RadialGrid  ... Gauss-Chebyshev
Angular Grid (max. acc.)         AngularGrid ... Lebedev-50
Angular grid pruning method      GridPruning ... 3 (G Style)
Weight generation scheme         WeightScheme... Becke
Basis function cutoff            BFCut       ...    1.0000e-11
Integration weight cutoff        WCut        ...    1.0000e-14
Grids for H and He will be reduced by one unit

# of grid points (after initial pruning)     ...   4820 (   0.0 sec)
# of grid points (after weights+screening)   ...   4578 (   0.0 sec)
nearest neighbour list constructed           ...    0.0 sec
Grid point re-assignment to atoms done       ...    0.0 sec
Grid point division into batches done        ...    0.0 sec
Reduced shell lists constructed in    0.0 sec

Total number of grid points                  ...     4578
Total number of batches                      ...       77
Average number of points per batch           ...       59
Average number of grid points per atom       ...      416
Average number of shells per batch           ...    44.88 (93.49%)
Average number of basis functions per batch  ...    92.53 (92.53%)
Average number of large shells per batch     ...    38.70 (86.24%)
Average number of large basis fcns per batch ...    80.00 (86.46%)
Maximum spatial batch extension              ...  13.87, 17.89, 19.96 au
Average spatial batch extension              ...   2.03,  1.95,  2.16 au

Overlap Fitting                  UseSFitting ... on
Constructing numerical overlap ... done (      0.0 sec)
Inverting numerical overlap    ... done (      0.0 sec)
Obtaining analytic overlap     ... done (      0.2 sec)
Final contraction and storage  ... done (      0.2 sec)


General Integration Accuracy     IntAcc      ...  3.670
Radial Grid Type                 RadialGrid  ... Gauss-Chebyshev
Angular Grid (max. acc.)         AngularGrid ... Lebedev-50
Angular grid pruning method      GridPruning ... 3 (G Style)
Weight generation scheme         WeightScheme... Becke
Basis function cutoff            BFCut       ...    1.0000e-11
Integration weight cutoff        WCut        ...    1.0000e-14
Grids for H and He will be reduced by one unit

# of grid points (after initial pruning)     ...   6170 (   0.0 sec)
# of grid points (after weights+screening)   ...   5850 (   0.0 sec)
nearest neighbour list constructed           ...    0.0 sec
Grid point re-assignment to atoms done       ...    0.0 sec
Grid point division into batches done        ...    0.0 sec
Reduced shell lists constructed in    0.0 sec

Total number of grid points                  ...     5850
Total number of batches                      ...       97
Average number of points per batch           ...       60
Average number of grid points per atom       ...      532
Average number of shells per batch           ...    44.80 (93.33%)
Average number of basis functions per batch  ...    92.56 (92.56%)
Average number of large shells per batch     ...    37.78 (84.33%)
Average number of large basis fcns per batch ...    78.18 (84.46%)
Maximum spatial batch extension              ...  14.67, 20.05, 22.26 au
Average spatial batch extension              ...   1.89,  1.90,  2.05 au

Overlap Fitting                  UseSFitting ... on
Constructing numerical overlap ... done (      0.0 sec)
Inverting numerical overlap    ... done (      0.0 sec)
Obtaining analytic overlap     ... done (      0.2 sec)
Final contraction and storage  ... done (      0.2 sec)


General Integration Accuracy     IntAcc      ...  4.010
Radial Grid Type                 RadialGrid  ... Gauss-Chebyshev
Angular Grid (max. acc.)         AngularGrid ... Lebedev-110
Angular grid pruning method      GridPruning ... 3 (G Style)
Weight generation scheme         WeightScheme... Becke
Basis function cutoff            BFCut       ...    1.0000e-11
Integration weight cutoff        WCut        ...    1.0000e-14
Grids for H and He will be reduced by one unit

# of grid points (after initial pruning)     ...  11302 (   0.1 sec)
# of grid points (after weights+screening)   ...  10714 (   0.0 sec)
nearest neighbour list constructed           ...    0.0 sec
Grid point re-assignment to atoms done       ...    0.0 sec
Grid point division into batches done        ...    0.0 sec
Reduced shell lists constructed in    0.1 sec

Total number of grid points                  ...    10714
Total number of batches                      ...      173
Average number of points per batch           ...       61
Average number of grid points per atom       ...      974
Average number of shells per batch           ...    43.72 (91.07%)
Average number of basis functions per batch  ...    89.90 (89.90%)
Average number of large shells per batch     ...    36.68 (83.91%)
Average number of large basis fcns per batch ...    75.70 (84.21%)
Maximum spatial batch extension              ...  19.35, 15.51, 17.47 au
Average spatial batch extension              ...   1.70,  1.69,  1.80 au

Overlap Fitting                  UseSFitting ... on
Constructing numerical overlap ... done (      0.0 sec)
Inverting numerical overlap    ... done (      0.0 sec)
Obtaining analytic overlap     ... done (      0.0 sec)
Final contraction and storage  ... done (      0.2 sec)

Time for X-Grid setup             =    3.767 sec
--------------
SCF ITERATIONS
--------------
ITER       Energy         Delta-E        Max-DP      RMS-DP      [F,P]     Damp
               ***  Starting incremental Fock matrix formation  ***
                      *** Initiating the SOSCF procedure ***
                      *** Re-Reading the Fockian *** 
                      *** Removing any level shift *** 
ITER      Energy       Delta-E        Grad      Rot      Max-DP    RMS-DP
  0   -231.09029231 -231.0902923100  0.002886  0.002886  0.008082  0.000436
               *** Restarting incremental Fock matrix formation ***
  1   -231.09100556  -0.0007132472  0.001362  0.003067  0.008169  0.000286
  2   -231.09103506  -0.0000295061  0.002622  0.003531  0.004848  0.000162
  3   -231.09108259  -0.0000475293  0.000901  0.001183  0.002355  0.000090
  4   -231.09109324  -0.0000106493  0.000338  0.000358  0.001125  0.000038
  5   -231.09109671  -0.0000034674  0.000109  0.000200  0.000242  0.000016
  6   -231.09109715  -0.0000004399  0.000026  0.000083  0.000110  0.000005
  7   -231.09109716  -0.0000000124  0.000044  0.000080  0.000082  0.000003
  8   -231.09109718  -0.0000000224  0.000017  0.000029  0.000030  0.000002
  9   -231.09109718  -0.0000000007  0.000008  0.000006  0.000016  0.000001
                  ***Gradient check signals convergence***
              ***Rediagonalizing the Fockian in SOSCF/NRSCF***

               *****************************************************
               *                     SUCCESS                       *
               *           SCF CONVERGED AFTER  10 CYCLES          *
               *****************************************************

Setting up the final grid:

General Integration Accuracy     IntAcc      ...  4.670
Radial Grid Type                 RadialGrid  ... Gauss-Chebyshev
Angular Grid (max. acc.)         AngularGrid ... Lebedev-302
Angular grid pruning method      GridPruning ... 3 (G Style)
Weight generation scheme         WeightScheme... Becke
Basis function cutoff            BFCut       ...    1.0000e-11
Integration weight cutoff        WCut        ...    1.0000e-14
Grids for H and He will be reduced by one unit

# of grid points (after initial pruning)     ...  51424 (   0.0 sec)
# of grid points (after weights+screening)   ...  48306 (   0.1 sec)
nearest neighbour list constructed           ...    0.0 sec
Grid point re-assignment to atoms done       ...    0.0 sec
Grid point division into batches done        ...    0.2 sec
Reduced shell lists constructed in    0.4 sec

Total number of grid points                  ...    48306
Total number of batches                      ...      761
Average number of points per batch           ...       63
Average number of grid points per atom       ...     4391
Average number of shells per batch           ...    41.24 (85.92%)
Average number of basis functions per batch  ...    84.65 (84.65%)
Average number of large shells per batch     ...    33.65 (81.59%)
Average number of large basis fcns per batch ...    69.13 (81.66%)
Maximum spatial batch extension              ...  16.61, 17.98, 18.76 au
Average spatial batch extension              ...   1.07,  1.05,  1.07 au

Final grid set up in    1.5 sec
Final integration                            ... done (   1.5 sec)
Change in XC energy                          ...     0.000542875
Integrated number of electrons               ...    37.999995114
Previous integrated no of electrons          ...    38.001285519
Old exchange energy                            =     -6.204031133 Eh
New exchange energy                            =     -6.203565011 Eh
Exchange energy change after final integration =      0.000466122 Eh
Total energy after final integration           =   -231.090088187 Eh
Final COS-X integration done in                =     1.448 sec
Total Energy       :         -231.09008819 Eh           -6288.28099 eV
  Last Energy change         ...   -3.1153e-10  Tolerance :   1.0000e-08
  Last MAX-Density change    ...    1.6520e-13  Tolerance :   1.0000e-07
             **** THE GBW FILE WAS UPDATED (frag_07_c00001.gbw) ****
             **** DENSITY FILE WAS UPDATED (frag_07_c00001.scfp.tmp) ****
             **** ENERGY FILE WAS UPDATED (frag_07_c00001.en.tmp) ****
Total SCF time: 0 days 0 hours 1 min 30 sec 

-------------------------   --------------------
FINAL SINGLE POINT ENERGY      -231.090088187071
-------------------------   --------------------



           ************************************************************
           *        Program running with 2 parallel MPI-processes     *
           *              working on a common directory               *
           ************************************************************
------------------------------------------------------------------------------
                         ORCA SCF GRADIENT CALCULATION
------------------------------------------------------------------------------

Gradient of the Kohn-Sham DFT energy:
Kohn-Sham wavefunction type      ... RKS
Hartree-Fock exchange scaling    ...    0.200
Number of operators              ...    1
Number of atoms                  ...   11
Basis set dimensions             ...  100
Integral neglect threshold       ... 2.5e-11
Integral primitive cutoff        ... 2.5e-12

Nuclear repulsion gradient       ... done
One Electron Gradient            ... done
Pre-screening matrix             ... done
RI-J gradient                    ... done
COSX-gradient                    ... done
Exchange-correlation gradient    ... done

------------------
CARTESIAN GRADIENT
------------------

   1   C   :    0.001027679   -0.001856199   -0.000084501
   2   C   :   -0.001240444    0.002382464   -0.000481980
   3   C   :   -0.004991461    0.000779740    0.002196225
   4   C   :   -0.000810534    0.004952193    0.009103127
   5   O   :    0.000477138   -0.004141563   -0.006187724
   6   H   :    0.000038723    0.000417465   -0.000200786
   7   H   :    0.002408729   -0.000824058   -0.000515733
   8   H   :    0.002314613   -0.000412311   -0.002143419
   9   H   :    0.001221061   -0.001513165   -0.002674732
  10   H   :    0.000290765    0.000634119   -0.000154059
  11   H   :    0.000681206   -0.000204866    0.000552350

Difference to translation invariance:
           :    0.0014174755    0.0002138180   -0.0005912324

Norm of the cartesian gradient     ...    0.0153414251
RMS gradient                       ...    0.0026705993
MAX gradient                       ...    0.0091031269

-------
TIMINGS
-------

Total SCF gradient time            ...        5.663 sec

One electron gradient       ....       0.056 sec  (  1.0%)
Prescreening matrices       ....       0.087 sec  (  1.5%)
RI-J Coulomb gradient       ....       0.662 sec  ( 11.7%)
COSX gradient               ....       1.720 sec  ( 30.4%)
XC gradient                 ....       1.363 sec  ( 24.1%)
------------------------------------------------------------------------------
                         ORCA GEOMETRY RELAXATION STEP
------------------------------------------------------------------------------

Reading the OPT-File                    .... done
Getting information on internals        .... done
Copying old internal coords+grads       .... done
Making the new internal coordinates     .... (new redundants).... done
Validating the new internal coordinates .... (new redundants).... done
Calculating the B-matrix                .... done
Calculating the G,G- and P matrices     .... done
Transforming gradient to internals      .... done
Projecting the internal gradient        .... done
Number of atoms                         ....  11
Number of internal coordinates          ....  41
Current Energy                          ....  -231.090088187 Eh
Current gradient norm                   ....     0.015341425 Eh/bohr
Maximum allowed component of the step   ....  0.300
Current trust radius                    ....  0.300
Updating the Hessian (BFGS)             .... done
Forming the augmented Hessian           .... done
Diagonalizing the augmented Hessian     .... done
Last element of RFO vector              ....  0.977808918
Lowest eigenvalues of augmented Hessian:
 -0.000860581  0.011116283  0.012205745  0.013101856  0.024139618
Length of the computed step             ....  0.214253245
The final length of the internal step   ....  0.214253245
Converting the step to cartesian space:
 Initial RMS(Int)=    0.0334607353
Transforming coordinates:
 Iter   0:  RMS(Cart)=    0.0264486225 RMS(Int)=    0.0334020376
 Iter   1:  RMS(Cart)=    0.0012795260 RMS(Int)=    0.0009900518
[...]
                  ***Gradient check signals convergence***
              ***Rediagonalizing the Fockian in SOSCF/NRSCF***

               *****************************************************
               *                     SUCCESS                       *
               *           SCF CONVERGED AFTER   9 CYCLES          *
               *****************************************************

Setting up the final grid:

General Integration Accuracy     IntAcc      ...  4.670
Radial Grid Type                 RadialGrid  ... Gauss-Chebyshev
Angular Grid (max. acc.)         AngularGrid ... Lebedev-302
Angular grid pruning method      GridPruning ... 3 (G Style)
Weight generation scheme         WeightScheme... Becke
Basis function cutoff            BFCut       ...    1.0000e-11
Integration weight cutoff        WCut        ...    1.0000e-14
Grids for H and He will be reduced by one unit

# of grid points (after initial pruning)     ...  51424 (   0.0 sec)
# of grid points (after weights+screening)   ...  48389 (   0.1 sec)
nearest neighbour list constructed           ...    0.0 sec
Grid point re-assignment to atoms done       ...    0.0 sec
Grid point division into batches done        ...    0.2 sec
Reduced shell lists constructed in    0.4 sec

Total number of grid points                  ...    48389
Total number of batches                      ...      761
Average number of points per batch           ...       63
Average number of grid points per atom       ...     4399
Average number of shells per batch           ...    39.51 (82.30%)
Average number of basis functions per batch  ...    81.00 (81.00%)
Average number of large shells per batch     ...    32.72 (82.82%)
Average number of large basis fcns per batch ...    66.87 (82.56%)
Maximum spatial batch extension              ...  19.27, 20.64, 15.89 au
Average spatial batch extension              ...   1.12,  1.15,  1.07 au

Final grid set up in    0.8 sec
Final integration                            ... done (   1.0 sec)
Change in XC energy                          ...    -0.000320737
Integrated number of electrons               ...    38.000032817
Previous integrated no of electrons          ...    37.992662613
Old exchange energy                            =     -6.205283487 Eh
New exchange energy                            =     -6.204717882 Eh
Exchange energy change after final integration =      0.000565605 Eh
Total energy after final integration           =   -231.094196725 Eh
Final COS-X integration done in                =     1.382 sec

----------------
TOTAL SCF ENERGY
----------------

Total Energy       :         -231.09419672 Eh           -6288.39279 eV

Components:
Nuclear Repulsion  :          156.58912906 Eh            4261.00683 eV
Electronic Energy  :         -387.68332579 Eh          -10549.39962 eV
One Electron Energy:         -622.24617692 Eh          -16932.17929 eV
Two Electron Energy:          234.56285113 Eh            6382.77967 eV

Virial components:
Potential Energy   :         -460.66774830 Eh          -12535.40672 eV
Kinetic Energy     :          229.57355158 Eh            6247.01393 eV
Virial Ratio       :            2.00662378


DFT components:
N(Alpha)           :       19.000016408288 electrons
N(Beta)            :       19.000016408288 electrons
N(Total)           :       38.000032816576 electrons
E(X)               :      -24.642861931962 Eh       
E(C)               :       -1.486329046725 Eh       
E(XC)              :      -26.129190978687 Eh       

---------------
SCF CONVERGENCE
---------------

  Last Energy change         ...   -1.3631e-09  Tolerance :   1.0000e-08
  Last MAX-Density change    ...    1.3625e-13  Tolerance :   1.0000e-07
  Last RMS-Density change    ...    1.5427e-15  Tolerance :   5.0000e-09
  Last Orbital Gradient      ...    1.2155e-06  Tolerance :   1.0000e-05
  Last Orbital Rotation      ...    1.5863e-06  Tolerance :   1.0000e-05

             **** THE GBW FILE WAS UPDATED (frag_07_c00001.gbw) ****
             **** DENSITY FILE WAS UPDATED (frag_07_c00001.scfp.tmp) ****
             **** ENERGY FILE WAS UPDATED (frag_07_c00001.en.tmp) ****
----------------
ORBITAL ENERGIES
----------------

  NO   OCC          E(Eh)            E(eV) 
   0   2.0000     -19.143418      -520.9189 
   1   2.0000     -10.280037      -279.7340 
   2   2.0000     -10.206965      -277.7456 
   3   2.0000     -10.195301      -277.4282 
   4   2.0000     -10.185121      -277.1512 
   5   2.0000      -1.050634       -28.5892 
   6   2.0000      -0.803630       -21.8679 
   7   2.0000      -0.721645       -19.6370 
   8   2.0000      -0.596519       -16.2321 
   9   2.0000      -0.543944       -14.8015 
  10   2.0000      -0.483645       -13.1607 
  11   2.0000      -0.469936       -12.7876 
  12   2.0000      -0.444727       -12.1016 
  13   2.0000      -0.418803       -11.3962 
  14   2.0000      -0.404473       -11.0063 
  15   2.0000      -0.363761        -9.8984 
  16   2.0000      -0.351079        -9.5534 
  17   2.0000      -0.270184        -7.3521 
  18   2.0000      -0.251967        -6.8564 
  19   0.0000      -0.023184        -0.6309 
  20   0.0000       0.008363         0.2276 
  21   0.0000       0.067244         1.8298 
  22   0.0000       0.084479         2.2988 
  23   0.0000       0.098861         2.6902 
  24   0.0000       0.115965         3.1556 
  25   0.0000       0.136113         3.7038 
  26   0.0000       0.149199         4.0599 
  27   0.0000       0.227749         6.1974 
  28   0.0000       0.259184         7.0527 
  29   0.0000       0.287425         7.8212 
  30   0.0000       0.335148         9.1198 
  31   0.0000       0.414575        11.2812 
  32   0.0000       0.432766        11.7762 
  33   0.0000       0.472377        12.8540 
  34   0.0000       0.480053        13.0629 
  35   0.0000       0.498164        13.5557 
  36   0.0000       0.507236        13.8026 
  37   0.0000       0.541501        14.7350 
  38   0.0000       0.563196        15.3253 
  39   0.0000       0.577332        15.7100 
  40   0.0000       0.610467        16.6116 
  41   0.0000       0.625369        17.0172 
  42   0.0000       0.647881        17.6297 
  43   0.0000       0.659309        17.9407 
  44   0.0000       0.669381        18.2148 
  45   0.0000       0.695530        18.9263 
  46   0.0000       0.718220        19.5438 
  47   0.0000       0.774094        21.0642 
  48   0.0000       0.809388        22.0246 
  49   0.0000       0.824421        22.4336 
  50   0.0000       0.879179        23.9237 
  51   0.0000       0.964240        26.2383 
  52   0.0000       0.972712        26.4689 
  53   0.0000       1.015012        27.6199 
  54   0.0000       1.033392        28.1200 
  55   0.0000       1.058592        28.8057 
  56   0.0000       1.088893        29.6303 
  57   0.0000       1.115706        30.3599 
  58   0.0000       1.146345        31.1936 
  59   0.0000       1.227370        33.3984 
  60   0.0000       1.279267        34.8106 
  61   0.0000       1.390762        37.8446 
  62   0.0000       1.401016        38.1236 
  63   0.0000       1.429373        38.8952 
  64   0.0000       1.477267        40.1985 
  65   0.0000       1.498181        40.7676 
  66   0.0000       1.526090        41.5270 
  67   0.0000       1.567744        42.6605 
  68   0.0000       1.577569        42.9278 
  69   0.0000       1.616063        43.9753 
  70   0.0000       1.635135        44.4943 
  71   0.0000       1.660605        45.1874 
  72   0.0000       1.685254        45.8581 
  73   0.0000       1.700472        46.2722 
  74   0.0000       1.706247        46.4293 
  75   0.0000       1.735803        47.2336 
  76   0.0000       1.804456        49.1017 
  77   0.0000       1.831772        49.8451 
  78   0.0000       1.873568        50.9824 
  79   0.0000       1.889402        51.4132 
  80   0.0000       1.916455        52.1494 
  81   0.0000       1.970650        53.6241 
  82   0.0000       2.018117        54.9157 
  83   0.0000       2.124951        57.8229 
  84   0.0000       2.162801        58.8528 
  85   0.0000       2.225294        60.5533 
  86   0.0000       2.232841        60.7587 
  87   0.0000       2.289841        62.3097 
  88   0.0000       2.306929        62.7747 
  89   0.0000       2.390174        65.0399 
  90   0.0000       2.455028        66.8047 
  91   0.0000       2.518418        68.5296 
  92   0.0000       2.569051        69.9074 
  93   0.0000       2.698166        73.4208 
  94   0.0000       2.716403        73.9171 
  95   0.0000       2.794429        76.0403 
  96   0.0000       2.968116        80.7665 
  97   0.0000       3.094235        84.1984 
  98   0.0000       3.348414        91.1150 
  99   0.0000       3.439986        93.6068 

                    ********************************
                    * MULLIKEN POPULATION ANALYSIS *
                    ********************************

-----------------------
MULLIKEN ATOMIC CHARGES
-----------------------
   0 C :    0.026904
   1 C :   -0.060724
   2 C :   -0.015696
   3 C :    0.152222
   4 O :   -0.183059
   5 H :    0.005090
   6 H :    0.028458
   7 H :    0.051674
   8 H :   -0.018744
   9 H :    0.019393
  10 H :   -0.005517
Sum of atomic charges:   -0.0000000

--------------------------------
MULLIKEN REDUCED ORBITAL CHARGES
--------------------------------
  0 C s       :     3.054324  s :     3.054324
      pz      :     0.931395  p :     2.875823
      px      :     0.945240
      py      :     0.999188
      dz2     :     0.011038  d :     0.042949
      dxz     :     0.007778
      dyz     :     0.007865
      dx2y2   :     0.009746
      dxy     :     0.006522
  1 C s       :     3.162989  s :     3.162989
      pz      :     0.927768  p :     2.832173
      px      :     0.934627
      py      :     0.969778
      dz2     :     0.014306  d :     0.065563
      dxz     :     0.014084
      dyz     :     0.008994
      dx2y2   :     0.015243
      dxy     :     0.012936
  2 C s       :     3.040735  s :     3.040735
      pz      :     1.001690  p :     2.912814
      px      :     0.939158
      py      :     0.971965
      dz2     :     0.009550  d :     0.062147
      dxz     :     0.018189
      dyz     :     0.007099
      dx2y2   :     0.017983
      dxy     :     0.009327
  3 C s       :     3.127659  s :     3.127659
      pz      :     0.874978  p :     2.574269
      px      :     0.930876
      py      :     0.768415
      dz2     :     0.038352  d :     0.145850
      dxz     :     0.060302
      dyz     :     0.029030
      dx2y2   :     0.007633
      dxy     :     0.010532
  4 O s       :     3.748054  s :     3.748054
      pz      :     1.369843  p :     4.416265
      px      :     1.764108
      py      :     1.282314
      dz2     :     0.007814  d :     0.018740
      dxz     :     0.003935
      dyz     :     0.005938
      dx2y2   :     0.000615
      dxy     :     0.000436
  5 H s       :     0.965300  s :     0.965300
      pz      :     0.015936  p :     0.029610
      px      :     0.006025
      py      :     0.007649
  6 H s       :     0.943093  s :     0.943093
      pz      :     0.014126  p :     0.028449
      px      :     0.005239
      py      :     0.009085
  7 H s       :     0.919572  s :     0.919572
      pz      :     0.007115  p :     0.028754
      px      :     0.004874
      py      :     0.016765
  8 H s       :     0.993699  s :     0.993699
      pz      :     0.004533  p :     0.025044
      px      :     0.016447
      py      :     0.004064
  9 H s       :     0.950883  s :     0.950883
      pz      :     0.007491  p :     0.029724
      px      :     0.015660
      py      :     0.006572
 10 H s       :     0.976943  s :     0.976943
      pz      :     0.016303  p :     0.028574
      px      :     0.005479
      py      :     0.006793


                     *******************************
                     * LOEWDIN POPULATION ANALYSIS *
                     *******************************

----------------------
LOEWDIN ATOMIC CHARGES
----------------------
   0 C :   -0.051046
   1 C :   -0.024247
   2 C :   -0.077074
   3 C :   -0.018805
   4 O :    0.000556
   5 H :    0.020155
   6 H :    0.045539
   7 H :    0.054332
   8 H :   -0.006179
   9 H :    0.027293
  10 H :    0.029477

-------------------------------
LOEWDIN REDUCED ORBITAL CHARGES
-------------------------------
  0 C s       :     2.846787  s :     2.846787
      pz      :     1.021043  p :     3.059186
      px      :     1.028725
      py      :     1.009419
      dz2     :     0.034537  d :     0.145074
      dxz     :     0.028323
      dyz     :     0.028070
      dx2y2   :     0.027854
      dxy     :     0.026290
  1 C s       :     2.832456  s :     2.832456
      pz      :     1.013804  p :     2.996997
      px      :     0.997433
      py      :     0.985760
      dz2     :     0.043311  d :     0.194795
      dxz     :     0.041083
      dyz     :     0.030276
      dx2y2   :     0.041231
      dxy     :     0.038894
  2 C s       :     2.808753  s :     2.808753
      pz      :     1.031716  p :     3.082847
      px      :     1.019429
      py      :     1.031702
      dz2     :     0.028271  d :     0.185474
      dxz     :     0.054544
      dyz     :     0.025368
      dx2y2   :     0.053693
      dxy     :     0.023598
  3 C s       :     2.881100  s :     2.881100
      pz      :     0.986345  p :     2.759266
      px      :     1.008814
      py      :     0.764107
      dz2     :     0.099736  d :     0.378439
      dxz     :     0.168237
      dyz     :     0.064184
      dx2y2   :     0.019677
      dxy     :     0.026605
  4 O s       :     3.496210  s :     3.496210
      pz      :     1.468422  p :     4.470890
      px      :     1.728021
      py      :     1.274448
      dz2     :     0.015109  d :     0.032345
      dxz     :     0.006989
      dyz     :     0.008722
      dx2y2   :     0.000743
      dxy     :     0.000782
  5 H s       :     0.899657  s :     0.899657
      pz      :     0.041771  p :     0.080188
      px      :     0.017383
      py      :     0.021034
  6 H s       :     0.876929  s :     0.876929
      pz      :     0.037788  p :     0.077532
      px      :     0.016916
      py      :     0.022828
  7 H s       :     0.867819  s :     0.867819
      pz      :     0.018954  p :     0.077849
      px      :     0.015822
      py      :     0.043073
  8 H s       :     0.932071  s :     0.932071
      pz      :     0.014741  p :     0.074108
      px      :     0.046399
      py      :     0.012969
  9 H s       :     0.892120  s :     0.892120
      pz      :     0.021458  p :     0.080588
      px      :     0.040466
      py      :     0.018663
 10 H s       :     0.890557  s :     0.890557
      pz      :     0.042910  p :     0.079966
      px      :     0.017419
      py      :     0.019636


                      *****************************
                      * MAYER POPULATION ANALYSIS *
                      *****************************

  NA   - Mulliken gross atomic population
  ZA   - Total nuclear charge
  QA   - Mulliken gross atomic charge
  VA   - Mayer's total valence
  BVA  - Mayer's bonded valence
  FA   - Mayer's free valence

  ATOM       NA         ZA         QA         VA         BVA        FA
  0 C      5.9731     6.0000     0.0269     3.9747     3.9747     0.0000
  1 C      6.0607     6.0000    -0.0607     4.1659     4.1659    -0.0000
  2 C      6.0157     6.0000    -0.0157     3.8932     3.8932     0.0000
  3 C      5.8478     6.0000     0.1522     4.1987     4.1987    -0.0000
  4 O      8.1831     8.0000    -0.1831     2.3466     2.3466    -0.0000
  5 H      0.9949     1.0000     0.0051     0.9780     0.9780    -0.0000
  6 H      0.9715     1.0000     0.0285     0.9828     0.9828     0.0000
  7 H      0.9483     1.0000     0.0517     0.9668     0.9668     0.0000
  8 H      1.0187     1.0000    -0.0187     0.9648     0.9648    -0.0000
  9 H      0.9806     1.0000     0.0194     0.9693     0.9693     0.0000
 10 H      1.0055     1.0000    -0.0055     0.9934     0.9934     0.0000

  Mayer bond orders larger than 0.1
B(  0-C ,  1-C ) :   2.0495 B(  0-C ,  5-H ) :   0.9391 B(  0-C ,  9-H ) :   0.9399 
B(  1-C ,  2-C ) :   1.0627 B(  1-C , 10-H ) :   0.9474 B(  2-C ,  3-C ) :   1.0054 
B(  2-C ,  6-H ) :   0.9202 B(  2-C ,  7-H ) :   0.9083 B(  3-C ,  4-O ) :   2.2350 
B(  3-C ,  8-H ) :   0.9149 

-------
TIMINGS
-------

Total SCF time: 0 days 0 hours 0 min 39 sec 

Total time                  ....      39.303 sec
Sum of individual times     ....      33.757 sec  ( 85.9%)

Fock matrix formation       ....      29.550 sec  ( 75.2%)
  Split-RI-J                ....       3.176 sec  ( 10.7% of F)
  Chain of spheres X        ....       8.949 sec  ( 30.3% of F)
  COS-X 1 center corr.      ....       0.000 sec  (  0.0% of F)
  XC integration            ....       9.539 sec  ( 32.3% of F)
    Basis function eval.    ....       0.560 sec  (  5.9% of XC)
    Density eval.           ....       0.241 sec  (  2.5% of XC)
    XC-Functional eval.     ....       0.115 sec  (  1.2% of XC)
    XC-Potential eval.      ....       0.375 sec  (  3.9% of XC)
Diagonalization             ....       0.013 sec  (  0.0%)
Density matrix formation    ....       0.005 sec  (  0.0%)
Population analysis         ....       0.295 sec  (  0.8%)
Initial guess               ....       0.076 sec  (  0.2%)
Orbital Transformation      ....       0.000 sec  (  0.0%)
Orbital Orthonormalization  ....       0.002 sec  (  0.0%)
DIIS solution               ....       0.001 sec  (  0.0%)
SOSCF solution              ....       0.664 sec  (  1.7%)
Grid generation             ....       3.154 sec  (  8.0%)

-------------------------   --------------------
FINAL SINGLE POINT ENERGY      -231.094196724567
-------------------------   --------------------

                                *** OPTIMIZATION RUN DONE ***

                            ***************************************
                            *     ORCA property calculations      *
                            ***************************************

                                    ---------------------
                                    Active property flags
                                    ---------------------
   (+) Dipole Moment


------------------------------------------------------------------------------
                       ORCA ELECTRIC PROPERTIES CALCULATION
------------------------------------------------------------------------------

Dipole Moment Calculation                       ... on
Quadrupole Moment Calculation                   ... off
Polarizability Calculation                      ... off
GBWName                                         ... frag_07_c00001.gbw
Electron density file                           ... frag_07_c00001.scfp.tmp
The origin for moment calculation is the CENTER OF MASS  = (-2.577430,  0.029412 -0.087947)

-------------
DIPOLE MOMENT
-------------
                                X             Y             Z
Electronic contribution:     -2.58508       0.20298      -3.11678
Nuclear contribution   :      2.63236       0.10845       3.99981
                        -----------------------------------------
Total Dipole Moment    :      0.04728       0.31143       0.88304
                        -----------------------------------------
Magnitude (a.u.)       :      0.93754
Magnitude (Debye)      :      2.38303


Timings for individual modules:

Sum of individual times         ...     1171.954 sec (=  19.533 min)
GTO integral calculation        ...       68.510 sec (=   1.142 min)   5.8 %
SCF iterations                  ...      983.228 sec (=  16.387 min)  83.9 %
SCF Gradient evaluation         ...      109.378 sec (=   1.823 min)   9.3 %
Geometry relaxation             ...       10.839 sec (=   0.181 min)   0.9 %
                             ****ORCA TERMINATED NORMALLY****
TOTAL RUN TIME: 0 days 0 hours 20 minutes 6 seconds 494 msec
