
                                 *****************
                                 * O   R   C   A *
                                 *****************

           --- An Ab Initio, DFT and Semiempirical electronic structure package ---

                  #######################################################
                  #                        -***-                        #
                  #  Department of molecular theory and spectroscopy    #
                  #              Directorship: Frank Neese              #
                  # Max Planck Institute for Chemical Energy Conversion #
                  #                  D-45470 Muelheim/Ruhr              #
                  #                       Germany                       #
                  #                                                     #
                  #                  All rights reserved                #
                  #                        -***-                        #
                  #######################################################


                         Program Version 4.0.1 -  RELEASE  -


 With contributions from (in alphabetic order):
   Daniel Aravena         : Magnetic Properties
   Michael Atanasov       : Ab Initio Ligand Field Theory
   Ute Becker             : Parallelization
   Martin Brehm           : Molecular dynamics
   Dmytro Bykov           : SCF Hessian
   Vijay G. Chilkuri      : MRCI spin determinant printing
   Dipayan Datta          : RHF DLPNO-CCSD density
   Achintya Kumar Dutta   : EOM-CC, STEOM-CC
   Dmitry Ganyushin       : Spin-Orbit,Spin-Spin,Magnetic field MRCI
   Yang Guo               : DLPNO-NEVPT2, CIM, IAO-localization
   Andreas Hansen         : Spin unrestricted coupled pair/coupled cluster methods
   Lee Huntington         : MR-EOM, pCC
   Robert Izsak           : Overlap fitted RIJCOSX, COSX-SCS-MP3, EOM
   Christian Kollmar      : KDIIS, OOCD, Brueckner-CCSD(T), CCSD density
   Simone Kossmann        : Meta GGA functionals, TD-DFT gradient, OOMP2, MP2 Hessian
   Martin Krupicka        : AUTO-CI
   Dagmar Lenk            : GEPOL surface
   Dimitrios Liakos       : Extrapolation schemes; parallel MDCI
   Dimitrios Manganas     : ROCIS; embedding schemes
   Dimitrios Pantazis     : SARC Basis sets
   Taras Petrenko         : DFT Hessian,TD-DFT gradient, ASA, ECA, R-Raman, ABS, FL, XAS/XES, NRVS
   Peter Pinski           : DLPNO-MP2
   Christoph Reimann      : Effective Core Potentials
   Marius Retegan         : Local ZFS, SOC
   Christoph Riplinger    : Optimizer, TS searches, QM/MM, DLPNO-CCSD(T), (RO)-DLPNO pert. Triples
   Tobias Risthaus        : Range-separated hybrids, TD-DFT gradient, RPA, STAB
   Michael Roemelt        : Restricted open shell CIS
   Masaaki Saitow         : Open-shell DLPNO
   Barbara Sandhoefer     : DKH picture change effects
   Kantharuban Sivalingam : CASSCF convergence, NEVPT2, FIC-MRCI
   Georgi Stoychev        : AutoAux
   Boris Wezisla          : Elementary symmetry handling
   Frank Wennmohs         : Technical directorship


 We gratefully acknowledge several colleagues who have allowed us to
 interface, adapt or use parts of their codes:
   Stefan Grimme, W. Hujo, H. Kruse,             : VdW corrections, initial TS optimization,
                  C. Bannwarth                     DFT functionals, gCP, sTDA/sTD-DF
   Ed Valeev                                     : LibInt (2-el integral package), F12 methods
   Garnet Chan, S. Sharma, J. Yang, R. Olivares  : DMRG
   Ulf Ekstrom                                   : XCFun DFT Library
   Mihaly Kallay                                 : mrcc  (arbitrary order and MRCC methods)
   Andreas Klamt, Michael Diedenhofen            : otool_cosmo (COSMO solvation model)
   Jiri Pittner, Ondrej Demel                    : Mk-CCSD
   Frank Weinhold                                : gennbo (NPA and NBO analysis)
   Christopher J. Cramer and Donald G. Truhlar   : smd solvation model


 Your calculation uses the libint2 library for the computation of 2-el integrals
 For citations please refer to: http://libint.valeyev.net

 This ORCA versions uses:
   CBLAS   interface :  Fast vector & matrix operations
   LAPACKE interface :  Fast linear algebra routines
   SCALAPACK package :  Parallel linear algebra routines


Your calculation utilizes the basis: cc-pVDZ 
       H, B-Ne : Obtained from the ccRepo (grant-hill.group.shef.ac.uk/ccrepo) Feb. 2017
                 T. H. Dunning, Jr., J. Chem. Phys. 90, 1007 (1989)
            He : Obtained from the ccRepo (grant-hill.group.shef.ac.uk/ccrepo) Feb. 2017
                 D. E. Woon, T. H. Dunning, Jr., J. Chem. Phys. 100, 2975 (1994)
  Li-Be, Na-Mg : Obtained from the ccRepo (grant-hill.group.shef.ac.uk/ccrepo) Feb. 2017
                 B. P. Prascher, D. E. Woon, K. A. Peterson, T. H. Dunning, Jr., A. K. Wilson, Theor. Chem. Acc. 128, 69 (2011)
         Al-Ar : Obtained from the ccRepo (grant-hill.group.shef.ac.uk/ccrepo) Feb. 2017
                 D. E. Woon, T. H. Dunning, Jr., J. Chem. Phys. 98, 1358 (1993)
            Ca : Obtained from the Peterson Research Group Website (tyr0.chem.wsu.edu/~kipeters) Feb. 2017
                 J. Koput, K. A. Peterson, J. Phys. Chem. 106, 9595 (2002)
         Sc-Zn : Obtained from the ccRepo (grant-hill.group.shef.ac.uk/ccrepo) Feb. 2017
                 N. B. Balabanov, K. A. Peterson, J. Chem. Phys. 123, 064107 (2005)
                 N. B. Balabanov, K. A. Peterson, J. Chem. Phys. 125, 074110 (2006)
         Ga-Kr : Obtained from the ccRepo (grant-hill.group.shef.ac.uk/ccrepo) Feb. 2017
                 A. K. Wilson, D. E. Woon, K. A. Peterson, T. H. Dunning, Jr., J. Chem. Phys. 110, 7667 (1999)

Your calculation utilizes the auxiliary basis: def2/J
   F. Weigend, Phys. Chem. Chem. Phys. 8, 1057 (2006).

================================================================================
                                        WARNINGS
                       Please study these warnings very carefully!
================================================================================

Warning: TCutStore was < 0. Adjusted to Thresh (uncritical)

WARNING: Geometry Optimization
  ===> : Switching off AutoStart
         For restart on a previous wavefunction, please use MOREAD

INFO   : the flag for use of LIBINT has been found!

================================================================================
                                       INPUT FILE
================================================================================
NAME = frag_12_c00002.com
|  1> %pal nprocs 2 end
|  2> %maxcore 1000
|  3> ! b3lyp TIGHTSCF
|  4> ! cc-pvdz def2/J RIJCOSX
|  5> ! Opt
|  6> 
|  7> %geom
|  8> maxiter 60
|  9> TolE 1e-4
| 10> TolRMSG 2e-3
| 11> TolMaxG 3e-3
| 12> TolRMSD 2e-2
| 13> TolMaxD 3e-2
| 14> end
| 15> 
| 16> *xyz 0 1
| 17> C 0.7369 1.1963 -0.0853
| 18> C 2.1109 0.8551 -0.3844
| 19> C 2.6868 -0.3474 -0.2669
| 20> C -0.2163 0.3665 0.3679
| 21> C -1.6145 0.7997 0.6944
| 22> C -2.6565 0.085 -0.146
| 23> O -2.4433 -0.864 -0.894
| 24> H 0.4959 2.2475 -0.2401
| 25> H 2.7214 1.6837 -0.7419
| 26> H 3.7327 -0.4807 -0.5256
| 27> H -1.8315 0.5892 1.7466
| 28> H -1.7463 1.875 0.5309
| 29> H -3.6846 0.4666 -0.0193
| 30> H 2.1526 -1.2262 0.0759
| 31> H -0.0051 -0.6885 0.525
| 32> *
| 33> 
| 34> 
| 35>                          ****END OF INPUT****
================================================================================

                       *****************************
                       * Geometry Optimization Run *
                       *****************************

Geometry optimization settings:
Update method            Update   .... BFGS
Choice of coordinates    CoordSys .... Redundant Internals
Initial Hessian          InHess   .... Almoef's Model

Convergence Tolerances:
Energy Change            TolE     ....  1.0000e-04 Eh
Max. Gradient            TolMAXG  ....  3.0000e-03 Eh/bohr
RMS Gradient             TolRMSG  ....  2.0000e-03 Eh/bohr
Max. Displacement        TolMAXD  ....  3.0000e-02 bohr
RMS Displacement         TolRMSD  ....  2.0000e-02 bohr

------------------------------------------------------------------------------
                        ORCA OPTIMIZATION COORDINATE SETUP
------------------------------------------------------------------------------

The optimization will be done in new redundant internal coordinates
Making redundant internal coordinates   ...  (new redundants) done
Evaluating the initial hessian          ...  (Almloef) done
Evaluating the coordinates              ...  done
Calculating the B-matrix                .... done
Calculating the G-matrix                .... done
Diagonalizing the G-matrix              .... done
Small eigenvalue found = 1.804e-02
The first mode is                       ....   20
The number of degrees of freedom        ....   39

    -----------------------------------------------------------------
                    Redundant Internal Coordinates


    -----------------------------------------------------------------
         Definition                    Initial Value    Approx d2E/dq
    -----------------------------------------------------------------
      1. B(C   1,C   0)                  1.4470         0.506791   
      2. B(C   2,C   1)                  1.3385         0.755037   
      3. B(C   3,C   0)                  1.3426         0.743666   
      4. B(C   4,C   3)                  1.4997         0.417495   
      5. B(C   5,C   4)                  1.5175         0.391117   
      6. B(O   6,C   5)                  1.2270         1.018385   
      7. B(H   7,C   0)                  1.0895         0.360728   
      8. B(H   8,C   1)                  1.0895         0.360711   
      9. B(H   9,C   2)                  1.0856         0.365922   
     10. B(H  10,C   4)                  1.0948         0.353843   
     11. B(H  11,C   4)                  1.0956         0.352747   
     12. B(H  12,C   5)                  1.1039         0.342136   
     13. B(H  13,C   2)                  1.0841         0.368054   
     14. B(H  14,C   3)                  1.0873         0.363635   
     15. A(C   3,C   0,H   7)          119.1590         0.364108   
     16. A(C   1,C   0,H   7)          114.0905         0.341236   
     17. A(C   1,C   0,C   3)          126.7410         0.432527   
     18. A(C   2,C   1,H   8)          118.0970         0.365051   
     19. A(C   0,C   1,C   2)          127.0328         0.433709   
     20. A(C   0,C   1,H   8)          114.8702         0.341233   
     21. A(H   9,C   2,H  13)          116.7797         0.292578   
     22. A(C   1,C   2,H  13)          122.9595         0.366313   
     23. A(C   1,C   2,H   9)          120.2595         0.365949   
     24. A(C   0,C   3,C   4)          123.8391         0.417782   
     25. A(C   4,C   3,H  14)          115.4605         0.330848   
     26. A(C   0,C   3,H  14)          120.7001         0.364608   
     27. A(H  10,C   4,H  11)          107.9565         0.289104   
     28. A(C   5,C   4,H  11)          107.2769         0.325668   
     29. A(C   3,C   4,H  11)          111.2943         0.329190   
     30. A(C   5,C   4,H  10)          107.7946         0.325834   
     31. A(C   3,C   4,H  10)          109.7851         0.329359   
     32. A(C   3,C   4,C   5)          112.5542         0.373279   
     33. A(C   4,C   5,O   6)          125.6303         0.433991   
     34. A(O   6,C   5,H  12)          119.9430         0.378478   
     35. A(C   4,C   5,H  12)          114.4011         0.324038   
     36. D(C   2,C   1,C   0,C   3)      0.0616         0.017500   
     37. D(C   2,C   1,C   0,H   7)    178.9160         0.017500   
     38. D(H   8,C   1,C   0,H   7)     -1.0792         0.017500   
     39. D(H   8,C   1,C   0,C   3)   -179.9336         0.017500   
     40. D(H  13,C   2,C   1,C   0)      0.3169         0.040709   
     41. D(H   9,C   2,C   1,H   8)     -0.1224         0.040709   
     42. D(H  13,C   2,C   1,H   8)   -179.6881         0.040709   
     43. D(H   9,C   2,C   1,C   0)    179.8825         0.040709   
     44. D(H  14,C   3,C   0,H   7)    179.5884         0.039376   
     45. D(H  14,C   3,C   0,C   1)     -1.6092         0.039376   
     46. D(C   4,C   3,C   0,H   7)     -0.6186         0.039376   
     47. D(C   4,C   3,C   0,C   1)    178.1838         0.039376   
     48. D(H  10,C   4,C   3,C   0)   -120.3999         0.012893   
     49. D(C   5,C   4,C   3,H  14)    -60.6684         0.012893   
     50. D(C   5,C   4,C   3,C   0)    119.5287         0.012893   
     51. D(H  11,C   4,C   3,H  14)    178.8656         0.012893   
     52. D(H  11,C   4,C   3,C   0)     -0.9374         0.012893   
     53. D(H  10,C   4,C   3,H  14)     59.4030         0.012893   
     54. D(H  12,C   5,C   4,H  11)    -50.1800         0.011377   
     55. D(H  12,C   5,C   4,H  10)     65.8545         0.011377   
     56. D(H  12,C   5,C   4,C   3)   -172.9309         0.011377   
     57. D(O   6,C   5,C   4,H  11)    131.6704         0.011377   
     58. D(O   6,C   5,C   4,H  10)   -112.2951         0.011377   
     59. D(O   6,C   5,C   4,C   3)      8.9195         0.011377   
    -----------------------------------------------------------------

Number of atoms                         .... 15
Number of degrees of freedom            .... 59

         *************************************************************
         *                GEOMETRY OPTIMIZATION CYCLE   1            *
         *************************************************************
---------------------------------
CARTESIAN COORDINATES (ANGSTROEM)
---------------------------------
  C      0.736900    1.196300   -0.085300
  C      2.110900    0.855100   -0.384400
  C      2.686800   -0.347400   -0.266900
  C     -0.216300    0.366500    0.367900
  C     -1.614500    0.799700    0.694400
  C     -2.656500    0.085000   -0.146000
  O     -2.443300   -0.864000   -0.894000
  H      0.495900    2.247500   -0.240100
  H      2.721400    1.683700   -0.741900
  H      3.732700   -0.480700   -0.525600
  H     -1.831500    0.589200    1.746600
  H     -1.746300    1.875000    0.530900
  H     -3.684600    0.466600   -0.019300
  H      2.152600   -1.226200    0.075900
  H     -0.005100   -0.688500    0.525000

----------------------------
CARTESIAN COORDINATES (A.U.)
----------------------------
  NO LB      ZA    FRAG     MASS         X           Y           Z
   0 C     6.0000    0    12.011    1.392539    2.260679   -0.161194
   1 C     6.0000    0    12.011    3.989023    1.615905   -0.726411
   2 C     6.0000    0    12.011    5.077316   -0.656491   -0.504368
   3 C     6.0000    0    12.011   -0.408748    0.692585    0.695230
   4 C     6.0000    0    12.011   -3.050963    1.511214    1.312226
   5 C     6.0000    0    12.011   -5.020057    0.160627   -0.275900
   6 O     8.0000    0    15.999   -4.617168   -1.632723   -1.689415
   7 H     1.0000    0     1.008    0.937115    4.247159   -0.453723
   8 H     1.0000    0     1.008    5.142701    3.181732   -1.401988
   9 H     1.0000    0     1.008    7.053781   -0.908391   -0.993240
  10 H     1.0000    0     1.008   -3.461033    1.113427    3.300596
  11 H     1.0000    0     1.008   -3.300029    3.543237    1.003256
  12 H     1.0000    0     1.008   -6.962885    0.881746   -0.036472
  13 H     1.0000    0     1.008    4.067824   -2.317182    0.143430
  14 H     1.0000    0     1.008   -0.009638   -1.301076    0.992106

--------------------------------
INTERNAL COORDINATES (ANGSTROEM)
--------------------------------
 C      0   0   0     0.000000000000     0.00000000     0.00000000
 C      1   0   0     1.446981081424     0.00000000     0.00000000
 C      2   1   0     1.338459304574   127.03278914     0.00000000
 C      1   2   3     1.342590227880   126.74095919     0.06161804
 C      4   1   2     1.499742554574   123.83909281   178.18381097
 C      5   4   1     1.517508566697   112.55416051   119.52871578
 O      6   5   4     1.227012322677   125.63032392     8.91948056
 H      1   2   3     1.089525346194   114.09046803   178.91599965
 H      2   1   3     1.089538645483   114.87020835   180.00477954
 H      3   2   1     1.085634095817   120.25946754   179.88248649
 H      5   4   1     1.094771250079   109.78511925   239.60006110
 H      5   4   1     1.095615616902   111.29426820   359.06263897
 H      6   5   4     1.103929825668   114.40112561   187.06905122
 H      3   2   1     1.084053006084   122.95953154     0.31685202
 H      4   1   2     1.087341183806   120.70013415   358.39075962

---------------------------
INTERNAL COORDINATES (A.U.)
---------------------------
 C      0   0   0     0.000000000000     0.00000000     0.00000000
 C      1   0   0     2.734397964857     0.00000000     0.00000000
 C      2   1   0     2.529321527043   127.03278914     0.00000000
 C      1   2   3     2.537127840773   126.74095919     0.06161804
 C      4   1   2     2.834102699532   123.83909281   178.18381097
 C      5   4   1     2.867675596937   112.55416051   119.52871578
 O      6   5   4     2.318717252805   125.63032392     8.91948056
 H      1   2   3     2.058904520273   114.09046803   178.91599965
 H      2   1   3     2.058929652286   114.87020835   180.00477954
 H      3   2   1     2.051551122741   120.25946754   179.88248649
 H      5   4   1     2.068817841940   109.78511925   239.60006110
 H      5   4   1     2.070413463992   111.29426820   359.06263897
 H      6   5   4     2.086125041580   114.40112561   187.06905122
 H      3   2   1     2.048563296153   122.95953154     0.31685202
 H      4   1   2     2.054777051527   120.70013415   358.39075962

---------------------
BASIS SET INFORMATION
---------------------
There are 3 groups of distinct atoms

 Group   1 Type C   : 17s4p1d contracted to 3s2p1d pattern {881/31/1}
 Group   2 Type O   : 17s4p1d contracted to 3s2p1d pattern {881/31/1}
 Group   3 Type H   : 4s1p contracted to 2s1p pattern {31/1}

Atom   0C    basis set group =>   1
Atom   1C    basis set group =>   1
Atom   2C    basis set group =>   1
Atom   3C    basis set group =>   1
Atom   4C    basis set group =>   1
Atom   5C    basis set group =>   1
Atom   6O    basis set group =>   2
Atom   7H    basis set group =>   3
Atom   8H    basis set group =>   3
Atom   9H    basis set group =>   3
Atom  10H    basis set group =>   3
Atom  11H    basis set group =>   3
Atom  12H    basis set group =>   3
Atom  13H    basis set group =>   3
Atom  14H    basis set group =>   3
-------------------------------
AUXILIARY BASIS SET INFORMATION
-------------------------------
There are 3 groups of distinct atoms

 Group   1 Type C   : 12s5p4d2f1g contracted to 6s4p3d1f1g pattern {711111/2111/211/2/1}
 Group   2 Type O   : 12s5p4d2f1g contracted to 6s4p3d1f1g pattern {711111/2111/211/2/1}
 Group   3 Type H   : 5s2p1d contracted to 3s1p1d pattern {311/2/1}

Atom   0C    basis set group =>   1
Atom   1C    basis set group =>   1
Atom   2C    basis set group =>   1
Atom   3C    basis set group =>   1
Atom   4C    basis set group =>   1
Atom   5C    basis set group =>   1
Atom   6O    basis set group =>   2
Atom   7H    basis set group =>   3
Atom   8H    basis set group =>   3
Atom   9H    basis set group =>   3
Atom  10H    basis set group =>   3
Atom  11H    basis set group =>   3
Atom  12H    basis set group =>   3
Atom  13H    basis set group =>   3
Atom  14H    basis set group =>   3


           ************************************************************
           *        Program running with 2 parallel MPI-processes     *
           *              working on a common directory               *
           ************************************************************
------------------------------------------------------------------------------
                           ORCA GTO INTEGRAL CALCULATION
                           -- RI-GTO INTEGRALS CHOSEN --
------------------------------------------------------------------------------

                         BASIS SET STATISTICS AND STARTUP INFO

Gaussian basis set:
 # of primitive gaussian shells          ...  194
 # of primitive gaussian functions       ...  294
 # of contracted shells                  ...   66
 # of contracted basis functions         ...  138
 Highest angular momentum                ...    2
 Maximum contraction depth               ...    8
Auxiliary gaussian basis set:
 # of primitive gaussian shells          ...  232
 # of primitive gaussian functions       ...  618
 # of contracted shells                  ...  145
 # of contracted aux-basis functions     ...  431
 Highest angular momentum                ...    4
 Maximum contraction depth               ...    7
Ratio of auxiliary to basis functions    ...  3.12
Integral package used                  ... LIBINT
 One Electron integrals                  ... done
 Ordering auxiliary basis shells         ... done
 Integral threshhold             Thresh  ...  2.500e-11
 Primitive cut-off               TCut    ...  2.500e-12
 Pre-screening matrix                    ... done
 Shell pair data                         ... 
 Ordering of the shell pairs             ... done (   0.000 sec) 2094 of 2211 pairs
 Determination of significant pairs      ... done (   0.000 sec)
 Creation of shell pair data             ... done (   0.001 sec)
 Storage of shell pair data              ... done (   0.322 sec)
 Shell pair data done in (   0.324 sec)
 Computing two index integrals           ... done
 Cholesky decomposition of the V-matrix  ... done


Timings:
 Total evaluation time                   ...   3.452 sec (  0.058 min)
 One electron matrix time                ...   1.538 sec (  0.026 min) = 44.6%
 Schwartz matrix evaluation time         ...   0.218 sec (  0.004 min) =  6.3%
 Two index repulsion integral time       ...   0.501 sec (  0.008 min) = 14.5%
 Cholesky decomposition of V             ...   0.686 sec (  0.011 min) = 19.9%
 Three index repulsion integral time     ...   0.000 sec (  0.000 min) =  0.0%



           ************************************************************
           *        Program running with 2 parallel MPI-processes     *
           *              working on a common directory               *
           ************************************************************
-------------------------------------------------------------------------------
                                 ORCA SCF
-------------------------------------------------------------------------------

------------
SCF SETTINGS
------------
Hamiltonian:
 Density Functional     Method          .... DFT(GTOs)
 Exchange Functional    Exchange        .... B88
   X-Alpha parameter    XAlpha          ....  0.666667
   Becke's b parameter  XBeta           ....  0.004200
 Correlation Functional Correlation     .... LYP
 LDA part of GGA corr.  LDAOpt          .... VWN-5
 Gradients option       PostSCFGGA      .... off
 Hybrid DFT is turned on
   Fraction HF Exchange ScalHFX         ....  0.200000
   Scaling of DF-GGA-X  ScalDFX         ....  0.720000
   Scaling of DF-GGA-C  ScalDFC         ....  0.810000
   Scaling of DF-LDA-C  ScalLDAC        ....  1.000000
   Perturbative correction              ....  0.000000
   NL short-range parameter             ....  4.800000
 RI-approximation to the Coulomb term is turned on
   Number of auxiliary basis functions  .... 431
   RIJ-COSX (HFX calculated with COS-X)).... on


General Settings:
 Integral files         IntName         .... frag_12_c00002
 Hartree-Fock type      HFTyp           .... RHF
 Total Charge           Charge          ....    0
 Multiplicity           Mult            ....    1
 Number of Electrons    NEL             ....   52
 Basis Dimension        Dim             ....  138
 Nuclear Repulsion      ENuc            ....    261.1841215397 Eh

Convergence Acceleration:
 DIIS                   CNVDIIS         .... on
   Start iteration      DIISMaxIt       ....    12
   Startup error        DIISStart       ....  0.200000
   # of expansion vecs  DIISMaxEq       ....     5
   Bias factor          DIISBfac        ....   1.050
   Max. coefficient     DIISMaxC        ....  10.000
 Newton-Raphson         CNVNR           .... off
 SOSCF                  CNVSOSCF        .... on
   Start iteration      SOSCFMaxIt      ....   150
   Startup grad/error   SOSCFStart      ....  0.003300
 Level Shifting         CNVShift        .... on
   Level shift para.    LevelShift      ....    0.2500
   Turn off err/grad.   ShiftErr        ....    0.0010
 Zerner damping         CNVZerner       .... off
 Static damping         CNVDamp         .... on
   Fraction old density DampFac         ....    0.7000
   Max. Damping (<1)    DampMax         ....    0.9800
   Min. Damping (>=0)   DampMin         ....    0.0000
   Turn off err/grad.   DampErr         ....    0.1000
 Fernandez-Rico         CNVRico         .... off

SCF Procedure:
 Maximum # iterations   MaxIter         ....   125
 SCF integral mode      SCFMode         .... Direct
   Integral package                     .... LIBINT
 Reset frequeny         DirectResetFreq ....    20
 Integral Threshold     Thresh          ....  2.500e-11 Eh
 Primitive CutOff       TCut            ....  2.500e-12 Eh

Convergence Tolerance:
 Convergence Check Mode ConvCheckMode   .... Total+1el-Energy
 Convergence forced     ConvForced      .... 0
 Energy Change          TolE            ....  1.000e-08 Eh
 1-El. energy change                    ....  1.000e-05 Eh
 Orbital Gradient       TolG            ....  1.000e-05
 Orbital Rotation angle TolX            ....  1.000e-05
 DIIS Error             TolErr          ....  5.000e-07


Diagonalization of the overlap matrix:
Smallest eigenvalue                        ... 1.206e-03
Time for diagonalization                   ...    0.006 sec
Threshold for overlap eigenvalues          ... 1.000e-08
Number of eigenvalues below threshold      ... 0
Time for construction of square roots      ...    0.627 sec
Total time needed                          ...    0.634 sec

-------------------
DFT GRID GENERATION
-------------------

General Integration Accuracy     IntAcc      ...  4.340
Radial Grid Type                 RadialGrid  ... Gauss-Chebyshev
Angular Grid (max. acc.)         AngularGrid ... Lebedev-110
Angular grid pruning method      GridPruning ... 3 (G Style)
Weight generation scheme         WeightScheme... Becke
Basis function cutoff            BFCut       ...    1.0000e-11
Integration weight cutoff        WCut        ...    1.0000e-14
Grids for H and He will be reduced by one unit

# of grid points (after initial pruning)     ...  18004 (   0.0 sec)
# of grid points (after weights+screening)   ...  16880 (   0.0 sec)
nearest neighbour list constructed           ...    0.0 sec
Grid point re-assignment to atoms done       ...    0.0 sec
Grid point division into batches done        ...    0.0 sec
Reduced shell lists constructed in    0.1 sec

Total number of grid points                  ...    16880
Total number of batches                      ...      272
Average number of points per batch           ...       62
Average number of grid points per atom       ...     1125
Average number of shells per batch           ...    52.93 (80.19%)
Average number of basis functions per batch  ...   108.24 (78.44%)
Average number of large shells per batch     ...    42.21 (79.75%)
Average number of large basis fcns per batch ...    86.40 (79.82%)
Maximum spatial batch extension              ...  16.08, 19.41, 19.72 au
Average spatial batch extension              ...   1.42,  1.55,  1.81 au

Time for grid setup =    1.541 sec

------------------------------
INITIAL GUESS: MODEL POTENTIAL
------------------------------
Loading Hartree-Fock densities                     ... done
Calculating cut-offs                               ... done
Setting up the integral package                    ... done
Initializing the effective Hamiltonian             ... done
Starting the Coulomb interaction                   ... done (   0.1 sec)
Reading the grid                                   ... done
Mapping shells                                     ... done
Starting the XC term evaluation                    ... done (   0.2 sec)
  promolecular density results
     # of electrons  =     52.000987082
     EX              =    -41.346886460
     EC              =     -1.713824359
     EX+EC           =    -43.060710819
Transforming the Hamiltonian                       ... done (   0.1 sec)
Diagonalizing the Hamiltonian                      ... done (   0.0 sec)
Back transforming the eigenvectors                 ... done (   0.0 sec)
Now organizing SCF variables                       ... done
                      ------------------
                      INITIAL GUESS DONE (   2.4 sec)
                      ------------------
--------------------
COSX GRID GENERATION
--------------------

General Integration Accuracy     IntAcc      ...  3.340
Radial Grid Type                 RadialGrid  ... Gauss-Chebyshev
Angular Grid (max. acc.)         AngularGrid ... Lebedev-50
Angular grid pruning method      GridPruning ... 3 (G Style)
Weight generation scheme         WeightScheme... Becke
Basis function cutoff            BFCut       ...    1.0000e-11
Integration weight cutoff        WCut        ...    1.0000e-14
Grids for H and He will be reduced by one unit

# of grid points (after initial pruning)     ...   6620 (   0.0 sec)
# of grid points (after weights+screening)   ...   6234 (   0.0 sec)
nearest neighbour list constructed           ...    0.0 sec
Grid point re-assignment to atoms done       ...    0.0 sec
Grid point division into batches done        ...    0.0 sec
Reduced shell lists constructed in    0.0 sec

Total number of grid points                  ...     6234
Total number of batches                      ...      105
Average number of points per batch           ...       59
Average number of grid points per atom       ...      416
Average number of shells per batch           ...    55.13 (83.53%)
Average number of basis functions per batch  ...   113.39 (82.17%)
Average number of large shells per batch     ...    44.63 (80.95%)
Average number of large basis fcns per batch ...    91.67 (80.84%)
Maximum spatial batch extension              ...  14.63, 16.11, 20.00 au
Average spatial batch extension              ...   1.78,  1.86,  2.22 au

Overlap Fitting                  UseSFitting ... on
Constructing numerical overlap ... done (      0.0 sec)
Inverting numerical overlap    ... done (      0.0 sec)
Obtaining analytic overlap     ... done (      0.0 sec)
Final contraction and storage  ... done (      0.5 sec)


General Integration Accuracy     IntAcc      ...  3.670
Radial Grid Type                 RadialGrid  ... Gauss-Chebyshev
Angular Grid (max. acc.)         AngularGrid ... Lebedev-50
Angular grid pruning method      GridPruning ... 3 (G Style)
Weight generation scheme         WeightScheme... Becke
Basis function cutoff            BFCut       ...    1.0000e-11
Integration weight cutoff        WCut        ...    1.0000e-14
Grids for H and He will be reduced by one unit

# of grid points (after initial pruning)     ...   8454 (   0.1 sec)
# of grid points (after weights+screening)   ...   7952 (   0.0 sec)
nearest neighbour list constructed           ...    0.0 sec
Grid point re-assignment to atoms done       ...    0.0 sec
Grid point division into batches done        ...    0.0 sec
Reduced shell lists constructed in    0.1 sec

Total number of grid points                  ...     7952
Total number of batches                      ...      130
Average number of points per batch           ...       61
Average number of grid points per atom       ...      530
Average number of shells per batch           ...    54.67 (82.83%)
Average number of basis functions per batch  ...   112.55 (81.55%)
Average number of large shells per batch     ...    44.24 (80.93%)
Average number of large basis fcns per batch ...    90.52 (80.43%)
Maximum spatial batch extension              ...  15.82, 17.80, 22.37 au
Average spatial batch extension              ...   1.62,  1.70,  2.11 au

Overlap Fitting                  UseSFitting ... on
Constructing numerical overlap ... done (      0.0 sec)
Inverting numerical overlap    ... done (      0.0 sec)
Obtaining analytic overlap     ... done (      0.2 sec)
Final contraction and storage  ... done (      0.3 sec)


General Integration Accuracy     IntAcc      ...  4.010
Radial Grid Type                 RadialGrid  ... Gauss-Chebyshev
Angular Grid (max. acc.)         AngularGrid ... Lebedev-110
Angular grid pruning method      GridPruning ... 3 (G Style)
Weight generation scheme         WeightScheme... Becke
Basis function cutoff            BFCut       ...    1.0000e-11
Integration weight cutoff        WCut        ...    1.0000e-14
Grids for H and He will be reduced by one unit

# of grid points (after initial pruning)     ...  15574 (   0.0 sec)
# of grid points (after weights+screening)   ...  14624 (   0.0 sec)
nearest neighbour list constructed           ...    0.0 sec
Grid point re-assignment to atoms done       ...    0.0 sec
Grid point division into batches done        ...    0.0 sec
Reduced shell lists constructed in    0.1 sec

Total number of grid points                  ...    14624
Total number of batches                      ...      236
Average number of points per batch           ...       61
Average number of grid points per atom       ...      975
Average number of shells per batch           ...    53.41 (80.93%)
Average number of basis functions per batch  ...   109.38 (79.26%)
Average number of large shells per batch     ...    43.05 (80.60%)
Average number of large basis fcns per batch ...    88.16 (80.60%)
Maximum spatial batch extension              ...  15.24, 18.42, 20.15 au
Average spatial batch extension              ...   1.50,  1.63,  1.87 au

Overlap Fitting                  UseSFitting ... on
Constructing numerical overlap ... done (      0.1 sec)
Inverting numerical overlap    ... done (      0.0 sec)
Obtaining analytic overlap     ... done (      0.2 sec)
Final contraction and storage  ... done (      0.5 sec)

Time for X-Grid setup             =    7.229 sec
--------------
SCF ITERATIONS
--------------
ITER       Energy         Delta-E        Max-DP      RMS-DP      [F,P]     Damp
               ***  Starting incremental Fock matrix formation  ***
  0   -308.2253450321   0.000000000000 0.10141490  0.00278986  0.2401915 0.7000
  1   -308.3292641837  -0.103919151595 0.06126611  0.00184846  0.0842091 0.7000
                               ***Turning on DIIS***
  2   -308.3675986054  -0.038334421744 0.05587055  0.00274361  0.0346603 0.0000
  3   -308.4305719220  -0.062973316582 0.05143031  0.00134026  0.0418743 0.0000
  4   -308.4434061442  -0.012834222141 0.01252371  0.00039998  0.0247474 0.0000
  5   -308.4448321734  -0.001426029191 0.00328663  0.00011899  0.0051635 0.0000
                      *** Initiating the SOSCF procedure ***
                           *** Shutting down DIIS ***
                      *** Re-Reading the Fockian *** 
                      *** Removing any level shift *** 
ITER      Energy       Delta-E        Grad      Rot      Max-DP    RMS-DP
  6   -308.44489725  -0.0000650781  0.000196  0.000196  0.001808  0.000068
               *** Restarting incremental Fock matrix formation ***
  7   -308.44489975  -0.0000024994  0.000142  0.000500  0.000541  0.000019
  8   -308.44489928   0.0000004670  0.000236  0.000318  0.000372  0.000011
  9   -308.44490012  -0.0000008320  0.000039  0.000077  0.000147  0.000004
 10   -308.44490011   0.0000000088  0.000043  0.000034  0.000091  0.000003
 11   -308.44490016  -0.0000000504  0.000008  0.000021  0.000032  0.000001
 12   -308.44490016   0.0000000025  0.000017  0.000015  0.000022  0.000001
                  ***Gradient check signals convergence***
              ***Rediagonalizing the Fockian in SOSCF/NRSCF***

               *****************************************************
               *                     SUCCESS                       *
               *           SCF CONVERGED AFTER  13 CYCLES          *
               *****************************************************

Setting up the final grid:

General Integration Accuracy     IntAcc      ...  4.670
Radial Grid Type                 RadialGrid  ... Gauss-Chebyshev
Angular Grid (max. acc.)         AngularGrid ... Lebedev-302
Angular grid pruning method      GridPruning ... 3 (G Style)
Weight generation scheme         WeightScheme... Becke
Basis function cutoff            BFCut       ...    1.0000e-11
Integration weight cutoff        WCut        ...    1.0000e-14
Grids for H and He will be reduced by one unit

# of grid points (after initial pruning)     ...  70636 (   0.0 sec)
# of grid points (after weights+screening)   ...  65395 (   0.1 sec)
nearest neighbour list constructed           ...    0.0 sec
Grid point re-assignment to atoms done       ...    0.0 sec
Grid point division into batches done        ...    0.3 sec
Reduced shell lists constructed in    0.9 sec

Total number of grid points                  ...    65395
Total number of batches                      ...     1029
Average number of points per batch           ...       63
Average number of grid points per atom       ...     4360
Average number of shells per batch           ...    50.07 (75.86%)
Average number of basis functions per batch  ...   101.98 (73.90%)
Average number of large shells per batch     ...    39.19 (78.27%)
Average number of large basis fcns per batch ...    80.23 (78.67%)
Maximum spatial batch extension              ...  16.00, 18.22, 19.51 au
Average spatial batch extension              ...   0.96,  0.98,  1.04 au

Final grid set up in    1.9 sec
Final integration                            ... done (   2.7 sec)
Change in XC energy                          ...     0.000584058
Integrated number of electrons               ...    52.000004009
Previous integrated no of electrons          ...    52.002945888
Old exchange energy                            =     -8.422975273 Eh
New exchange energy                            =     -8.422189258 Eh
Exchange energy change after final integration =      0.000786015 Eh
Total energy after final integration           =   -308.443530083 Eh
Final COS-X integration done in                =     2.835 sec

----------------
TOTAL SCF ENERGY
----------------

Total Energy       :         -308.44353008 Eh           -8393.17515 eV

Components:
Nuclear Repulsion  :          261.18412154 Eh            7107.18127 eV
Electronic Energy  :         -569.62765162 Eh          -15500.35642 eV
One Electron Energy:         -933.81466474 Eh          -25410.38887 eV
Two Electron Energy:          364.18701312 Eh            9910.03244 eV

Virial components:
Potential Energy   :         -614.94368203 Eh          -16733.46830 eV
Kinetic Energy     :          306.50015195 Eh            8340.29315 eV
Virial Ratio       :            2.00634055


DFT components:
N(Alpha)           :       26.000002004607 electrons
N(Beta)            :       26.000002004607 electrons
N(Total)           :       52.000004009215 electrons
E(X)               :      -33.441251221833 Eh       
E(C)               :       -2.032477231107 Eh       
E(XC)              :      -35.473728452940 Eh       

---------------
SCF CONVERGENCE
---------------

  Last Energy change         ...   -1.6499e-09  Tolerance :   1.0000e-08
  Last MAX-Density change    ...    2.1072e-13  Tolerance :   1.0000e-07
  Last RMS-Density change    ...    2.3845e-15  Tolerance :   5.0000e-09
  Last Orbital Gradient      ...    3.1638e-07  Tolerance :   1.0000e-05
  Last Orbital Rotation      ...    1.3413e-06  Tolerance :   1.0000e-05

             **** THE GBW FILE WAS UPDATED (frag_12_c00002.gbw) ****
             **** DENSITY FILE WAS UPDATED (frag_12_c00002.scfp.tmp) ****
             **** ENERGY FILE WAS UPDATED (frag_12_c00002.en.tmp) ****
----------------
ORBITAL ENERGIES
----------------

  NO   OCC          E(Eh)            E(eV) 
   0   2.0000     -19.143111      -520.9105 
   1   2.0000     -10.279515      -279.7198 
   2   2.0000     -10.206794      -277.7410 
   3   2.0000     -10.193399      -277.3765 
   4   2.0000     -10.189077      -277.2589 
   5   2.0000     -10.188757      -277.2502 
   6   2.0000     -10.180339      -277.0211 
   7   2.0000      -1.039757       -28.2932 
   8   2.0000      -0.820573       -22.3289 
   9   2.0000      -0.775679       -21.1073 
  10   2.0000      -0.706935       -19.2367 
  11   2.0000      -0.624115       -16.9830 
  12   2.0000      -0.568842       -15.4790 
  13   2.0000      -0.531854       -14.4725 
  14   2.0000      -0.482800       -13.1376 
  15   2.0000      -0.477423       -12.9914 
  16   2.0000      -0.461046       -12.5457 
  17   2.0000      -0.432375       -11.7655 
  18   2.0000      -0.420767       -11.4497 
  19   2.0000      -0.397994       -10.8300 
  20   2.0000      -0.364868        -9.9286 
  21   2.0000      -0.354317        -9.6414 
  22   2.0000      -0.348325        -9.4784 
  23   2.0000      -0.321811        -8.7569 
  24   2.0000      -0.257429        -7.0050 
  25   2.0000      -0.225112        -6.1256 
  26   0.0000      -0.037862        -1.0303 
  27   0.0000      -0.027290        -0.7426 
  28   0.0000       0.063363         1.7242 
  29   0.0000       0.074992         2.0406 
  30   0.0000       0.081822         2.2265 
  31   0.0000       0.090747         2.4694 
  32   0.0000       0.107151         2.9157 
  33   0.0000       0.118155         3.2152 
  34   0.0000       0.140932         3.8350 
  35   0.0000       0.161486         4.3943 
  36   0.0000       0.184791         5.0284 
  37   0.0000       0.212970         5.7952 
  38   0.0000       0.250727         6.8226 
  39   0.0000       0.288299         7.8450 
  40   0.0000       0.296167         8.0591 
  41   0.0000       0.321841         8.7577 
  42   0.0000       0.403016        10.9666 
  43   0.0000       0.412447        11.2233 
  44   0.0000       0.428239        11.6530 
  45   0.0000       0.466960        12.7066 
  46   0.0000       0.470743        12.8096 
  47   0.0000       0.477246        12.9865 
  48   0.0000       0.503895        13.7117 
  49   0.0000       0.515316        14.0225 
  50   0.0000       0.526442        14.3252 
  51   0.0000       0.541026        14.7221 
  52   0.0000       0.550934        14.9917 
  53   0.0000       0.565141        15.3783 
  54   0.0000       0.579075        15.7574 
  55   0.0000       0.597392        16.2559 
  56   0.0000       0.617150        16.7935 
  57   0.0000       0.632565        17.2130 
  58   0.0000       0.643771        17.5179 
  59   0.0000       0.648866        17.6565 
  60   0.0000       0.662332        18.0230 
  61   0.0000       0.686418        18.6784 
  62   0.0000       0.695959        18.9380 
  63   0.0000       0.709845        19.3159 
  64   0.0000       0.741425        20.1752 
  65   0.0000       0.789996        21.4969 
  66   0.0000       0.798934        21.7401 
  67   0.0000       0.824975        22.4487 
  68   0.0000       0.876775        23.8582 
  69   0.0000       0.897754        24.4291 
  70   0.0000       0.922088        25.0913 
  71   0.0000       0.963103        26.2074 
  72   0.0000       0.968491        26.3540 
  73   0.0000       0.983720        26.7684 
  74   0.0000       1.025940        27.9173 
  75   0.0000       1.033583        28.1252 
  76   0.0000       1.056231        28.7415 
  77   0.0000       1.069875        29.1128 
  78   0.0000       1.086309        29.5600 
  79   0.0000       1.116700        30.3869 
  80   0.0000       1.122605        30.5476 
  81   0.0000       1.155388        31.4397 
  82   0.0000       1.210016        32.9262 
  83   0.0000       1.281781        34.8790 
  84   0.0000       1.338389        36.4194 
  85   0.0000       1.382127        37.6096 
  86   0.0000       1.397569        38.0298 
  87   0.0000       1.418811        38.6078 
  88   0.0000       1.449531        39.4437 
  89   0.0000       1.488113        40.4936 
  90   0.0000       1.504588        40.9419 
  91   0.0000       1.510402        41.1001 
  92   0.0000       1.536125        41.8001 
  93   0.0000       1.549380        42.1608 
  94   0.0000       1.578436        42.9514 
  95   0.0000       1.604386        43.6576 
  96   0.0000       1.623045        44.1653 
  97   0.0000       1.641694        44.6728 
  98   0.0000       1.658114        45.1196 
  99   0.0000       1.668430        45.4003 
 100   0.0000       1.683276        45.8043 
 101   0.0000       1.698033        46.2058 
 102   0.0000       1.714270        46.6477 
 103   0.0000       1.721152        46.8349 
 104   0.0000       1.776553        48.3425 
 105   0.0000       1.805042        49.1177 
 106   0.0000       1.816212        49.4216 
 107   0.0000       1.839279        50.0493 
 108   0.0000       1.854271        50.4573 
 109   0.0000       1.866828        50.7990 
 110   0.0000       1.883973        51.2655 
 111   0.0000       1.957540        53.2674 
 112   0.0000       1.970189        53.6116 
 113   0.0000       1.992861        54.2285 
 114   0.0000       2.048753        55.7494 
 115   0.0000       2.090488        56.8851 
 116   0.0000       2.103913        57.2504 
 117   0.0000       2.166420        58.9513 
 118   0.0000       2.187455        59.5237 
 119   0.0000       2.241078        60.9828 
 120   0.0000       2.275934        61.9313 
 121   0.0000       2.288575        62.2753 
 122   0.0000       2.306213        62.7552 
 123   0.0000       2.327500        63.3345 
 124   0.0000       2.424899        65.9849 
 125   0.0000       2.434208        66.2382 
 126   0.0000       2.535752        69.0013 
 127   0.0000       2.556068        69.5541 
 128   0.0000       2.589161        70.4546 
 129   0.0000       2.639872        71.8346 
 130   0.0000       2.706417        73.6454 
 131   0.0000       2.778178        75.5981 
 132   0.0000       2.829487        76.9943 
 133   0.0000       2.858191        77.7753 
 134   0.0000       3.074021        83.6484 
 135   0.0000       3.237631        88.1004 
 136   0.0000       3.327629        90.5494 
 137   0.0000       3.420332        93.0720 

                    ********************************
                    * MULLIKEN POPULATION ANALYSIS *
                    ********************************

-----------------------
MULLIKEN ATOMIC CHARGES
-----------------------
   0 C :    0.037281
   1 C :   -0.042423
   2 C :    0.044008
   3 C :   -0.007086
   4 C :   -0.003189
   5 C :    0.161153
   6 O :   -0.197840
   7 H :   -0.038522
   8 H :   -0.025204
   9 H :    0.015086
  10 H :    0.049693
  11 H :    0.029613
  12 H :   -0.017643
  13 H :    0.009999
  14 H :   -0.014925
Sum of atomic charges:   -0.0000000

--------------------------------
MULLIKEN REDUCED ORBITAL CHARGES
--------------------------------
  0 C s       :     3.101983  s :     3.101983
      pz      :     0.988267  p :     2.794362
      px      :     0.924408
      py      :     0.881686
      dz2     :     0.005698  d :     0.066374
      dxz     :     0.013214
      dyz     :     0.004710
      dx2y2   :     0.025791
      dxy     :     0.016962
  1 C s       :     3.107955  s :     3.107955
      pz      :     0.963380  p :     2.866133
      px      :     0.955395
      py      :     0.947359
      dz2     :     0.003840  d :     0.068335
      dxz     :     0.009756
      dyz     :     0.009475
      dx2y2   :     0.019772
      dxy     :     0.025492
  2 C s       :     3.028707  s :     3.028707
      pz      :     0.978807  p :     2.883710
      px      :     0.918368
      py      :     0.986535
      dz2     :     0.000993  d :     0.043576
      dxz     :     0.002272
      dyz     :     0.008586
      dx2y2   :     0.017073
      dxy     :     0.014652
  3 C s       :     3.152511  s :     3.152511
      pz      :     0.964680  p :     2.789773
      px      :     0.909380
      py      :     0.915713
      dz2     :     0.005889  d :     0.064803
      dxz     :     0.012471
      dyz     :     0.005441
      dx2y2   :     0.024780
      dxy     :     0.016221
  4 C s       :     3.019593  s :     3.019593
      pz      :     0.985783  p :     2.920249
      px      :     0.951815
      py      :     0.982651
      dz2     :     0.012870  d :     0.063346
      dxz     :     0.015219
      dyz     :     0.004475
      dx2y2   :     0.017136
      dxy     :     0.013646
  5 C s       :     3.125280  s :     3.125280
      pz      :     0.817305  p :     2.571432
      px      :     0.928175
      py      :     0.825951
      dz2     :     0.028435  d :     0.142136
      dxz     :     0.024385
      dyz     :     0.022392
      dx2y2   :     0.027724
      dxy     :     0.039200
  6 O s       :     3.761468  s :     3.761468
      pz      :     1.327766  p :     4.418534
      px      :     1.771713
      py      :     1.319056
      dz2     :     0.003828  d :     0.017838
      dxz     :     0.001767
      dyz     :     0.005892
      dx2y2   :     0.003762
      dxy     :     0.002588
  7 H s       :     1.009782  s :     1.009782
      pz      :     0.006114  p :     0.028740
      px      :     0.005314
      py      :     0.017312
  8 H s       :     0.996707  s :     0.996707
      pz      :     0.007270  p :     0.028497
      px      :     0.008909
      py      :     0.012317
  9 H s       :     0.954677  s :     0.954677
      pz      :     0.006957  p :     0.030237
      px      :     0.017842
      py      :     0.005438
 10 H s       :     0.920964  s :     0.920964
      pz      :     0.017344  p :     0.029343
      px      :     0.005421
      py      :     0.006578
 11 H s       :     0.941670  s :     0.941670
      pz      :     0.006263  p :     0.028717
      px      :     0.004753
      py      :     0.017700
 12 H s       :     0.991943  s :     0.991943
      pz      :     0.003183  p :     0.025700
      px      :     0.017870
      py      :     0.004647
 13 H s       :     0.959673  s :     0.959673
      pz      :     0.007248  p :     0.030327
      px      :     0.008807
      py      :     0.014272
 14 H s       :     0.986028  s :     0.986028
      pz      :     0.005908  p :     0.028897
      px      :     0.005130
      py      :     0.017859


                     *******************************
                     * LOEWDIN POPULATION ANALYSIS *
                     *******************************

----------------------
LOEWDIN ATOMIC CHARGES
----------------------
   0 C :   -0.044742
   1 C :   -0.041507
   2 C :   -0.032831
   3 C :   -0.000880
   4 C :   -0.072159
   5 C :   -0.003535
   6 O :   -0.015333
   7 H :    0.023940
   8 H :    0.029229
   9 H :    0.025489
  10 H :    0.051333
  11 H :    0.043922
  12 H :   -0.007221
  13 H :    0.019387
  14 H :    0.024906

-------------------------------
LOEWDIN REDUCED ORBITAL CHARGES
-------------------------------
  0 C s       :     2.816053  s :     2.816053
      pz      :     0.965182  p :     3.022574
      px      :     1.031665
      py      :     1.025727
      dz2     :     0.018092  d :     0.206116
      dxz     :     0.036897
      dyz     :     0.013935
      dx2y2   :     0.081313
      dxy     :     0.055879
  1 C s       :     2.817700  s :     2.817700
      pz      :     0.941148  p :     3.015481
      px      :     1.015177
      py      :     1.059156
      dz2     :     0.013553  d :     0.208326
      dxz     :     0.026811
      dyz     :     0.026611
      dx2y2   :     0.062584
      dxy     :     0.078766
  2 C s       :     2.839521  s :     2.839521
      pz      :     0.964409  p :     3.049251
      px      :     1.026764
      py      :     1.058077
      dz2     :     0.008878  d :     0.144060
      dxz     :     0.007720
      dyz     :     0.022260
      dx2y2   :     0.056035
      dxy     :     0.049166
  3 C s       :     2.825491  s :     2.825491
      pz      :     0.940231  p :     2.983508
      px      :     1.002799
      py      :     1.040478
      dz2     :     0.018034  d :     0.191881
      dxz     :     0.031184
      dyz     :     0.015741
      dx2y2   :     0.075397
      dxy     :     0.051525
  4 C s       :     2.799266  s :     2.799266
      pz      :     1.033173  p :     3.084053
      px      :     1.016255
      py      :     1.034625
      dz2     :     0.042542  d :     0.188839
      dxz     :     0.043235
      dyz     :     0.013992
      dx2y2   :     0.052264
      dxy     :     0.036807
  5 C s       :     2.881239  s :     2.881239
      pz      :     0.849622  p :     2.754971
      px      :     1.013498
      py      :     0.891850
      dz2     :     0.060513  d :     0.367325
      dxz     :     0.067082
      dyz     :     0.065358
      dx2y2   :     0.066262
      dxy     :     0.108110
  6 O s       :     3.511252  s :     3.511252
      pz      :     1.354742  p :     4.473643
      px      :     1.741582
      py      :     1.377319
      dz2     :     0.004481  d :     0.030437
      dxz     :     0.002985
      dyz     :     0.011990
      dx2y2   :     0.006271
      dxy     :     0.004711
  7 H s       :     0.896588  s :     0.896588
      pz      :     0.018290  p :     0.079472
      px      :     0.016414
      py      :     0.044768
  8 H s       :     0.892125  s :     0.892125
      pz      :     0.020590  p :     0.078646
      px      :     0.025637
      py      :     0.032419
  9 H s       :     0.891592  s :     0.891592
      pz      :     0.021017  p :     0.082919
      px      :     0.046411
      py      :     0.015490
 10 H s       :     0.867256  s :     0.867256
      pz      :     0.045510  p :     0.081410
      px      :     0.018102
      py      :     0.017798
 11 H s       :     0.876482  s :     0.876482
      pz      :     0.017165  p :     0.079596
      px      :     0.015840
      py      :     0.046590
 12 H s       :     0.929309  s :     0.929309
      pz      :     0.011295  p :     0.077911
      px      :     0.051138
      py      :     0.015478
 13 H s       :     0.896873  s :     0.896873
      pz      :     0.021654  p :     0.083741
      px      :     0.025597
      py      :     0.036490
 14 H s       :     0.892224  s :     0.892224
      pz      :     0.017832  p :     0.082870
      px      :     0.017514
      py      :     0.047524


                      *****************************
                      * MAYER POPULATION ANALYSIS *
                      *****************************

  NA   - Mulliken gross atomic population
  ZA   - Total nuclear charge
  QA   - Mulliken gross atomic charge
  VA   - Mayer's total valence
  BVA  - Mayer's bonded valence
  FA   - Mayer's free valence

  ATOM       NA         ZA         QA         VA         BVA        FA
  0 C      5.9627     6.0000     0.0373     4.0444     4.0444    -0.0000
  1 C      6.0424     6.0000    -0.0424     4.2185     4.2185    -0.0000
  2 C      5.9560     6.0000     0.0440     3.9716     3.9716    -0.0000
  3 C      6.0071     6.0000    -0.0071     4.0277     4.0277    -0.0000
  4 C      6.0032     6.0000    -0.0032     3.9097     3.9097    -0.0000
  5 C      5.8388     6.0000     0.1612     4.1802     4.1802     0.0000
  6 O      8.1978     8.0000    -0.1978     2.3241     2.3241     0.0000
  7 H      1.0385     1.0000    -0.0385     0.9725     0.9725    -0.0000
  8 H      1.0252     1.0000    -0.0252     0.9657     0.9657     0.0000
  9 H      0.9849     1.0000     0.0151     0.9679     0.9679    -0.0000
 10 H      0.9503     1.0000     0.0497     0.9671     0.9671     0.0000
 11 H      0.9704     1.0000     0.0296     0.9814     0.9814    -0.0000
 12 H      1.0176     1.0000    -0.0176     0.9651     0.9651    -0.0000
 13 H      0.9900     1.0000     0.0100     0.9764     0.9764     0.0000
 14 H      1.0149     1.0000    -0.0149     1.0008     1.0008    -0.0000

  Mayer bond orders larger than 0.1
B(  0-C ,  1-C ) :   1.1857 B(  0-C ,  3-C ) :   1.8570 B(  0-C ,  7-H ) :   0.9312 
B(  1-C ,  2-C ) :   1.9926 B(  1-C ,  8-H ) :   0.9301 B(  2-C ,  3-C ) :   0.1054 
B(  2-C ,  9-H ) :   0.9278 B(  2-C , 13-H ) :   0.9290 B(  3-C ,  4-C ) :   1.0754 
B(  3-C , 14-H ) :   0.9391 B(  4-C ,  5-C ) :   0.9950 B(  4-C , 10-H ) :   0.9074 
B(  4-C , 11-H ) :   0.9226 B(  5-C ,  6-O ) :   2.2196 B(  5-C , 12-H ) :   0.9233 


-------
TIMINGS
-------

Total SCF time: 0 days 0 hours 2 min 5 sec 

Total time                  ....     125.288 sec
Sum of individual times     ....     107.729 sec  ( 86.0%)

Fock matrix formation       ....      91.817 sec  ( 73.3%)
  Split-RI-J                ....      11.519 sec  ( 12.5% of F)
  Chain of spheres X        ....      22.541 sec  ( 24.5% of F)
  COS-X 1 center corr.      ....       0.000 sec  (  0.0% of F)
  XC integration            ....      24.664 sec  ( 26.9% of F)
    Basis function eval.    ....       1.100 sec  (  4.5% of XC)
    Density eval.           ....       0.499 sec  (  2.0% of XC)
    XC-Functional eval.     ....       0.255 sec  (  1.0% of XC)
    XC-Potential eval.      ....       0.869 sec  (  3.5% of XC)
Diagonalization             ....       1.057 sec  (  0.8%)
Density matrix formation    ....       0.087 sec  (  0.1%)
Population analysis         ....       0.616 sec  (  0.5%)
Initial guess               ....       0.837 sec  (  0.7%)
Orbital Transformation      ....       0.000 sec  (  0.0%)
Orbital Orthonormalization  ....       0.000 sec  (  0.0%)
DIIS solution               ....       1.473 sec  (  1.2%)
SOSCF solution              ....       1.171 sec  (  0.9%)
Grid generation             ....      10.671 sec  (  8.5%)

-------------------------   --------------------
FINAL SINGLE POINT ENERGY      -308.443530083229
-------------------------   --------------------



           ************************************************************
           *        Program running with 2 parallel MPI-processes     *
           *              working on a common directory               *
           ************************************************************
------------------------------------------------------------------------------
                         ORCA SCF GRADIENT CALCULATION
------------------------------------------------------------------------------

Gradient of the Kohn-Sham DFT energy:
Kohn-Sham wavefunction type      ... RKS
Hartree-Fock exchange scaling    ...    0.200
Number of operators              ...    1
Number of atoms                  ...   15
Basis set dimensions             ...  138
Integral neglect threshold       ... 2.5e-11
Integral primitive cutoff        ... 2.5e-12

Nuclear repulsion gradient       ... done
One Electron Gradient            ... done
Pre-screening matrix             ... done
RI-J gradient                    ... done
COSX-gradient                    ... done
Exchange-correlation gradient    ... done

------------------
CARTESIAN GRADIENT
------------------

   1   C   :    0.008258269   -0.000172546   -0.004289010
   2   C   :   -0.008292051    0.003801037    0.002312329
   3   C   :   -0.004461315   -0.001316566    0.001301627
   4   C   :    0.002250267   -0.006615527   -0.001390237
   5   C   :   -0.008083266    0.007846143    0.016486943
   6   C   :   -0.006669785    0.026882575    0.012875422
   7   O   :    0.001926758   -0.023532256   -0.016647724
   8   H   :    0.004563959   -0.004341854    0.000048244
   9   H   :   -0.003102033   -0.002654458    0.001328113
  10   H   :   -0.004462477    0.001572452    0.000882232
  11   H   :    0.006196029    0.000318705   -0.008270877
  12   H   :    0.001278185   -0.006543627   -0.001819112
  13   H   :    0.009691314   -0.004663122   -0.000991139
  14   H   :    0.003706775    0.004689991   -0.002221885
  15   H   :   -0.001790157    0.004493055    0.000267909

Difference to translation invariance:
           :    0.0010104732   -0.0002359977   -0.0001271658

Norm of the cartesian gradient     ...    0.0532191704
RMS gradient                       ...    0.0079334455
MAX gradient                       ...    0.0268825746

-------
TIMINGS
-------

Total SCF gradient time            ...        8.872 sec

One electron gradient       ....       0.122 sec  (  1.4%)
Prescreening matrices       ....       0.134 sec  (  1.5%)
RI-J Coulomb gradient       ....       0.897 sec  ( 10.1%)
COSX gradient               ....       2.924 sec  ( 33.0%)
XC gradient                 ....       2.441 sec  ( 27.5%)
------------------------------------------------------------------------------
                         ORCA GEOMETRY RELAXATION STEP
------------------------------------------------------------------------------

Reading the OPT-File                    .... done
Getting information on internals        .... done
Copying old internal coords+grads       .... done
Making the new internal coordinates     .... (new redundants).... done
Validating the new internal coordinates .... (new redundants).... done
Calculating the B-matrix                .... done
Calculating the G,G- and P matrices     .... done
Transforming gradient to internals      .... done
Projecting the internal gradient        .... done
Number of atoms                         ....  15
Number of internal coordinates          ....  59
Current Energy                          ....  -308.443530083 Eh
Current gradient norm                   ....     0.053219170 Eh/bohr
Maximum allowed component of the step   ....  0.300
Current trust radius                    ....  0.300
Evaluating the initial hessian          ....  (Almloef) done
Projecting the Hessian                  .... done
Forming the augmented Hessian           .... done
Diagonalizing the augmented Hessian     .... done
Last element of RFO vector              ....  0.985979080
Lowest eigenvalues of augmented Hessian:
 -0.003563022  0.011387190  0.011699461  0.012898407  0.017516174
Length of the computed step             ....  0.169241897
The final length of the internal step   ....  0.169241897
Converting the step to cartesian space:
 Initial RMS(Int)=    0.0220334183
Transforming coordinates:
 Iter   0:  RMS(Cart)=    0.0334988877 RMS(Int)=    1.1544990131
 Iter   1:  RMS(Cart)=    0.0006321742 RMS(Int)=    0.0004727920
 Iter   2:  RMS(Cart)=    0.0000301404 RMS(Int)=    0.0000273801
 Iter   3:  RMS(Cart)=    0.0000016453 RMS(Int)=    0.0000014329
 Iter   4:  RMS(Cart)=    0.0000001098 RMS(Int)=    0.0000001012
 Iter   5:  RMS(Cart)=    0.0000000064 RMS(Int)=    0.0000000056
done
Storing new coordinates                 .... done

                                .--------------------.
          ----------------------|Geometry convergence|-------------------------
          Item                value                   Tolerance       Converged
          ---------------------------------------------------------------------
          RMS gradient        0.0054673734            0.0020000000      NO
          MAX gradient        0.0286288194            0.0030000000      NO
          RMS step            0.0220334183            0.0200000000      NO
          MAX step            0.0862205575            0.0300000000      NO
          ........................................................
          Max(Bonds)      0.0189      Max(Angles)    1.33
          Max(Dihed)        4.94      Max(Improp)    0.00
          ---------------------------------------------------------------------

The optimization has not yet converged - more geometry cycles are needed


    ---------------------------------------------------------------------------
                         Redundant Internal Coordinates
                            (Angstroem and degrees)

        Definition                    Value    dE/dq     Step     New-Value
    ----------------------------------------------------------------------------
     1. B(C   1,C   0)                1.4470 -0.018274  0.0189    1.4659   
     2. B(C   2,C   1)                1.3385 -0.006572  0.0046    1.3430   
     3. B(C   3,C   0)                1.3426 -0.002189  0.0016    1.3441   
     4. B(C   4,C   3)                1.4997 -0.003103  0.0039    1.5036   
     5. B(C   5,C   4)                1.5175  0.000002 -0.0000    1.5175   
     6. B(O   6,C   5)                1.2270  0.028629 -0.0148    1.2122   
     7. B(H   7,C   0)                1.0895 -0.005217  0.0076    1.0971   
     8. B(H   8,C   1)                1.0895 -0.004285  0.0062    1.0958   
     9. B(H   9,C   2)                1.0856 -0.004794  0.0069    1.0925   
    10. B(H  10,C   4)                1.0948 -0.009263  0.0137    1.1085   
    11. B(H  11,C   4)                1.0956 -0.006243  0.0093    1.1049   
    12. B(H  12,C   5)                1.1039 -0.010644  0.0163    1.1202   
    13. B(H  13,C   2)                1.0841 -0.006202  0.0088    1.0929   
    14. B(H  14,C   3)                1.0873 -0.004692  0.0068    1.0941   
    15. A(C   3,C   0,H   7)          119.16  0.004465   -0.68    118.47   
    16. A(C   1,C   0,H   7)          114.09 -0.002752    0.47    114.56   
    17. A(C   1,C   0,C   3)          126.74 -0.001724    0.24    126.98   
    18. A(C   2,C   1,H   8)          118.10  0.002090   -0.30    117.79   
    19. A(C   0,C   1,C   2)          127.03 -0.002361    0.33    127.36   
    20. A(C   0,C   1,H   8)          114.87  0.000270   -0.02    114.85   
    21. A(H   9,C   2,H  13)          116.78  0.000145   -0.03    116.75   
    22. A(C   1,C   2,H  13)          122.96  0.001535   -0.24    122.72   
    23. A(C   1,C   2,H   9)          120.26 -0.001681    0.26    120.52   
    24. A(C   0,C   3,C   4)          123.84 -0.001147    0.16    124.00   
    25. A(C   4,C   3,H  14)          115.46 -0.000697    0.12    115.58   
    26. A(C   0,C   3,H  14)          120.70  0.001843   -0.28    120.42   
    27. A(H  10,C   4,H  11)          107.96  0.001101   -0.97    106.99   
    28. A(C   5,C   4,H  11)          107.28  0.000619    0.17    107.45   
    29. A(C   3,C   4,H  11)          111.29  0.001358    0.14    111.44   
    30. A(C   5,C   4,H  10)          107.79  0.005325   -1.18    106.61   
    31. A(C   3,C   4,H  10)          109.79 -0.001401    0.36    110.15   
    32. A(C   3,C   4,C   5)          112.55 -0.006551    1.33    113.88   
    33. A(C   4,C   5,O   6)          125.63  0.004095   -0.53    125.10   
    34. A(O   6,C   5,H  12)          119.94 -0.002661    0.41    120.35   
    35. A(C   4,C   5,H  12)          114.40 -0.001473    0.27    114.67   
    36. D(C   2,C   1,C   0,C   3)      0.06  0.000655   -1.46     -1.40   
    37. D(C   2,C   1,C   0,H   7)    178.92  0.000047   -0.33    178.59   
    38. D(H   8,C   1,C   0,H   7)     -1.08 -0.000081   -0.10     -1.18   
    39. D(H   8,C   1,C   0,C   3)   -179.93  0.000527   -1.24   -181.17   
    40. D(H  13,C   2,C   1,C   0)      0.32  0.000120   -0.13      0.19   
    41. D(H   9,C   2,C   1,H   8)     -0.12  0.000109   -0.17     -0.29   
    42. D(H  13,C   2,C   1,H   8)   -179.69  0.000251   -0.35   -180.04   
    43. D(H   9,C   2,C   1,C   0)    179.88 -0.000022    0.06    179.94   
    44. D(H  14,C   3,C   0,H   7)    179.59  0.000552   -0.93    178.66   
    45. D(H  14,C   3,C   0,C   1)     -1.61 -0.000162    0.27     -1.34   
    46. D(C   4,C   3,C   0,H   7)     -0.62  0.000358   -0.53     -1.15   
    47. D(C   4,C   3,C   0,C   1)    178.18 -0.000356    0.66    178.85   
    48. D(H  10,C   4,C   3,C   0)   -120.40  0.000037    0.35   -120.05   
    49. D(C   5,C   4,C   3,H  14)    -60.67 -0.001623    1.10    -59.57   
    50. D(C   5,C   4,C   3,C   0)    119.53 -0.001443    0.72    120.25   
    51. D(H  11,C   4,C   3,H  14)    178.87  0.001178   -0.15    178.71   
    52. D(H  11,C   4,C   3,C   0)     -0.94  0.001357   -0.53     -1.47   
    53. D(H  10,C   4,C   3,H  14)     59.40 -0.000143    0.73     60.13   
    54. D(H  12,C   5,C   4,H  11)    -50.18 -0.002487    2.39    -47.79   
    55. D(H  12,C   5,C   4,H  10)     65.85  0.001788    0.76     66.61   
    56. D(H  12,C   5,C   4,C   3)   -172.93 -0.000450    1.24   -171.69   
    57. D(O   6,C   5,C   4,H  11)    131.67 -0.000999   -3.31    128.36   
    58. D(O   6,C   5,C   4,H  10)   -112.30  0.003276   -4.94   -117.24   
    59. D(O   6,C   5,C   4,C   3)      8.92  0.001038   -4.46      4.46   
    ----------------------------------------------------------------------------

         *************************************************************
         *                GEOMETRY OPTIMIZATION CYCLE   2            *
         *************************************************************
---------------------------------
CARTESIAN COORDINATES (ANGSTROEM)
---------------------------------
  C      0.737141    1.191709   -0.082229
  C      2.128793    0.850425   -0.391707
  C      2.722405   -0.347301   -0.261919
  C     -0.218366    0.360133    0.367441
  C     -1.623510    0.788910    0.687850
  C     -2.684858    0.074930   -0.128605
  O     -2.470902   -0.822109   -0.915334
  H      0.479081    2.245516   -0.245122
  H      2.734676    1.683028   -0.766375
  H      3.773849   -0.477254   -0.528624
  H     -1.851890    0.583879    1.753001
  H     -1.759940    1.874153    0.531608
  H     -3.720356    0.484740   -0.007353
  H      2.194837   -1.231563    0.104344
  H     -0.001857   -0.701395    0.520224

----------------------------
CARTESIAN COORDINATES (A.U.)
----------------------------
  NO LB      ZA    FRAG     MASS         X           Y           Z
   0 C     6.0000    0    12.011    1.392994    2.252004   -0.155389
   1 C     6.0000    0    12.011    4.022835    1.607070   -0.740219
   2 C     6.0000    0    12.011    5.144599   -0.656303   -0.494955
   3 C     6.0000    0    12.011   -0.412652    0.680553    0.694363
   4 C     6.0000    0    12.011   -3.067990    1.490823    1.299847
   5 C     6.0000    0    12.011   -5.073647    0.141598   -0.243028
   6 O     8.0000    0    15.999   -4.669329   -1.553561   -1.729731
   7 H     1.0000    0     1.008    0.905332    4.243410   -0.463213
   8 H     1.0000    0     1.008    5.167788    3.180461   -1.448240
   9 H     1.0000    0     1.008    7.131542   -0.901880   -0.998954
  10 H     1.0000    0     1.008   -3.499564    1.103372    3.312692
  11 H     1.0000    0     1.008   -3.325805    3.541635    1.004593
  12 H     1.0000    0     1.008   -7.030454    0.916025   -0.013896
  13 H     1.0000    0     1.008    4.147641   -2.327317    0.197182
  14 H     1.0000    0     1.008   -0.003509   -1.325445    0.983081

--------------------------------
INTERNAL COORDINATES (ANGSTROEM)
--------------------------------
 C      0   0   0     0.000000000000     0.00000000     0.00000000
 C      1   0   0     1.465928774396     0.00000000     0.00000000
 C      2   1   0     1.343044009742   127.35949716     0.00000000
 C      1   2   3     1.344140599940   126.97330600   358.60022379
 C      4   1   2     1.503642961952   123.99840573   178.84521503
 C      5   4   1     1.517505940681   113.87704583   120.25202524
 O      6   5   4     1.212187965848   125.02355126     4.45557232
 H      1   2   3     1.097104174738   114.55574343   178.59331765
 H      2   1   3     1.095763592736   114.84737082   180.22691669
 H      3   2   1     1.092499536994   120.52199545   179.93971408
 H      5   4   1     1.108486470250   110.15403952   239.95341380
 H      5   4   1     1.104887918014   111.42884926   358.52939910
 H      6   5   4     1.120223712938   114.59170780   188.30712334
 H      3   2   1     1.092884462885   122.72363728     0.19088227
 H      4   1   2     1.094103045994   120.41718205   358.65722379

---------------------------
INTERNAL COORDINATES (A.U.)
---------------------------
 C      0   0   0     0.000000000000     0.00000000     0.00000000
 C      1   0   0     2.770203915444     0.00000000     0.00000000
 C      2   1   0     2.537985364217   127.35949716     0.00000000
 C      1   2   3     2.540057619372   126.97330600   358.60022379
 C      4   1   2     2.841473401288   123.99840573   178.84521503
 C      5   4   1     2.867670634485   113.87704583   120.25202524
 O      6   5   4     2.290703278288   125.02355126     4.45557232
 H      1   2   3     2.073226430637   114.55574343   178.59331765
 H      2   1   3     2.070693097792   114.84737082   180.22691669
 H      3   2   1     2.064524926355   120.52199545   179.93971408
 H      5   4   1     2.094735851930   110.15403952   239.95341380
 H      5   4   1     2.087935573725   111.42884926   358.52939910
 H      6   5   4     2.116916026178   114.59170780   188.30712334
 H      3   2   1     2.065252330871   122.72363728     0.19088227
 H      4   1   2     2.067555119217   120.41718205   358.65722379



           ************************************************************
           *        Program running with 2 parallel MPI-processes     *
           *              working on a common directory               *
           ************************************************************
 One Electron integrals                  ... done
 Pre-screening matrix                    ... done


           ************************************************************
           *        Program running with 2 parallel MPI-processes     *
           *              working on a common directory               *
           ************************************************************

Diagonalization of the overlap matrix:
Smallest eigenvalue                        ... 1.249e-03
Time for diagonalization                   ...    0.006 sec
Threshold for overlap eigenvalues          ... 1.000e-08
Number of eigenvalues below threshold      ... 0
Time for construction of square roots      ...    0.453 sec
Total time needed                          ...    0.460 sec

-------------------
DFT GRID GENERATION
-------------------

General Integration Accuracy     IntAcc      ...  4.340
Radial Grid Type                 RadialGrid  ... Gauss-Chebyshev
Angular Grid (max. acc.)         AngularGrid ... Lebedev-110
Angular grid pruning method      GridPruning ... 3 (G Style)
Weight generation scheme         WeightScheme... Becke
Basis function cutoff            BFCut       ...    1.0000e-11
Integration weight cutoff        WCut        ...    1.0000e-14
Grids for H and He will be reduced by one unit

# of grid points (after initial pruning)     ...  18004 (   0.2 sec)
# of grid points (after weights+screening)   ...  16882 (   0.0 sec)
nearest neighbour list constructed           ...    0.0 sec
Grid point re-assignment to atoms done       ...    0.0 sec
Grid point division into batches done        ...    0.0 sec
Reduced shell lists constructed in    0.1 sec

Total number of grid points                  ...    16882
Total number of batches                      ...      271
Average number of points per batch           ...       62
Average number of grid points per atom       ...     1125
Average number of shells per batch           ...    52.74 (79.92%)
Average number of basis functions per batch  ...   107.85 (78.16%)
Average number of large shells per batch     ...    41.96 (79.55%)
Average number of large basis fcns per batch ...    85.93 (79.67%)
Maximum spatial batch extension              ...  16.08, 19.39, 19.74 au
Average spatial batch extension              ...   1.41,  1.56,  1.82 au

Time for grid setup =    1.364 sec

--------------------
COSX GRID GENERATION
--------------------

General Integration Accuracy     IntAcc      ...  3.340
Radial Grid Type                 RadialGrid  ... Gauss-Chebyshev
Angular Grid (max. acc.)         AngularGrid ... Lebedev-50
Angular grid pruning method      GridPruning ... 3 (G Style)
Weight generation scheme         WeightScheme... Becke
Basis function cutoff            BFCut       ...    1.0000e-11
Integration weight cutoff        WCut        ...    1.0000e-14
Grids for H and He will be reduced by one unit

# of grid points (after initial pruning)     ...   6620 (   0.0 sec)
# of grid points (after weights+screening)   ...   6239 (   0.0 sec)
nearest neighbour list constructed           ...    0.0 sec
Grid point re-assignment to atoms done       ...    0.0 sec
Grid point division into batches done        ...    0.0 sec
Reduced shell lists constructed in    0.1 sec

Total number of grid points                  ...     6239
Total number of batches                      ...      105
Average number of points per batch           ...       59
Average number of grid points per atom       ...      416
Average number of shells per batch           ...    54.91 (83.19%)
Average number of basis functions per batch  ...   112.80 (81.74%)
Average number of large shells per batch     ...    44.37 (80.81%)
Average number of large basis fcns per batch ...    91.07 (80.74%)
Maximum spatial batch extension              ...  14.67, 16.78, 20.01 au
Average spatial batch extension              ...   1.79,  1.90,  2.27 au

Overlap Fitting                  UseSFitting ... on
Constructing numerical overlap ... done (      0.0 sec)
Inverting numerical overlap    ... done (      0.0 sec)
Obtaining analytic overlap     ... done (      0.2 sec)
Final contraction and storage  ... done (      0.3 sec)


General Integration Accuracy     IntAcc      ...  3.670
Radial Grid Type                 RadialGrid  ... Gauss-Chebyshev
Angular Grid (max. acc.)         AngularGrid ... Lebedev-50
Angular grid pruning method      GridPruning ... 3 (G Style)
Weight generation scheme         WeightScheme... Becke
Basis function cutoff            BFCut       ...    1.0000e-11
Integration weight cutoff        WCut        ...    1.0000e-14
Grids for H and He will be reduced by one unit

# of grid points (after initial pruning)     ...   8454 (   0.0 sec)
# of grid points (after weights+screening)   ...   7952 (   0.0 sec)
nearest neighbour list constructed           ...    0.0 sec
Grid point re-assignment to atoms done       ...    0.0 sec
Grid point division into batches done        ...    0.0 sec
Reduced shell lists constructed in    0.1 sec

Total number of grid points                  ...     7952
Total number of batches                      ...      130
Average number of points per batch           ...       61
Average number of grid points per atom       ...      530
Average number of shells per batch           ...    54.23 (82.16%)
Average number of basis functions per batch  ...   111.11 (80.51%)
Average number of large shells per batch     ...    44.06 (81.25%)
Average number of large basis fcns per batch ...    90.21 (81.19%)
Maximum spatial batch extension              ...  15.86, 18.17, 22.39 au
Average spatial batch extension              ...   1.70,  1.81,  2.20 au

Overlap Fitting                  UseSFitting ... on
Constructing numerical overlap ... done (      0.0 sec)
Inverting numerical overlap    ... done (      0.0 sec)
Obtaining analytic overlap     ... done (      0.0 sec)
Final contraction and storage  ... done (      0.2 sec)


General Integration Accuracy     IntAcc      ...  4.010
Radial Grid Type                 RadialGrid  ... Gauss-Chebyshev
Angular Grid (max. acc.)         AngularGrid ... Lebedev-110
Angular grid pruning method      GridPruning ... 3 (G Style)
Weight generation scheme         WeightScheme... Becke
Basis function cutoff            BFCut       ...    1.0000e-11
Integration weight cutoff        WCut        ...    1.0000e-14
Grids for H and He will be reduced by one unit

# of grid points (after initial pruning)     ...  15574 (   0.0 sec)
# of grid points (after weights+screening)   ...  14631 (   0.0 sec)
nearest neighbour list constructed           ...    0.0 sec
Grid point re-assignment to atoms done       ...    0.0 sec
Grid point division into batches done        ...    0.0 sec
Reduced shell lists constructed in    0.1 sec

Total number of grid points                  ...    14631
[...]
----------------
ORBITAL ENERGIES
----------------

  NO   OCC          E(Eh)            E(eV) 
   0   2.0000     -19.143722      -520.9272 
   1   2.0000     -10.280027      -279.7338 
   2   2.0000     -10.208543      -277.7886 
   3   2.0000     -10.194614      -277.4095 
   4   2.0000     -10.194127      -277.3963 
   5   2.0000     -10.193161      -277.3700 
   6   2.0000     -10.184646      -277.1383 
   7   2.0000      -1.051056       -28.6007 
   8   2.0000      -0.818107       -22.2618 
   9   2.0000      -0.773358       -21.0441 
  10   2.0000      -0.707405       -19.2495 
  11   2.0000      -0.618867       -16.8402 
  12   2.0000      -0.563662       -15.3380 
  13   2.0000      -0.532882       -14.5004 
  14   2.0000      -0.480170       -13.0661 
  15   2.0000      -0.478084       -13.0093 
  16   2.0000      -0.454174       -12.3587 
  17   2.0000      -0.437597       -11.9076 
  18   2.0000      -0.420322       -11.4375 
  19   2.0000      -0.404931       -11.0187 
  20   2.0000      -0.370147       -10.0722 
  21   2.0000      -0.358227        -9.7479 
  22   2.0000      -0.348039        -9.4706 
  23   2.0000      -0.308008        -8.3813 
  24   2.0000      -0.257762        -7.0141 
  25   2.0000      -0.231144        -6.2898 
  26   0.0000      -0.031699        -0.8626 
  27   0.0000      -0.021642        -0.5889 
  28   0.0000       0.056123         1.5272 
  29   0.0000       0.072510         1.9731 
  30   0.0000       0.080332         2.1859 
  31   0.0000       0.086619         2.3570 
  32   0.0000       0.103228         2.8090 
  33   0.0000       0.120186         3.2704 
  34   0.0000       0.138928         3.7804 
  35   0.0000       0.147693         4.0189 
  36   0.0000       0.165212         4.4956 
  37   0.0000       0.214045         5.8245 
  38   0.0000       0.256461         6.9787 
  39   0.0000       0.290191         7.8965 
  40   0.0000       0.294319         8.0088 
  41   0.0000       0.320490         8.7210 
  42   0.0000       0.360161         9.8005 
  43   0.0000       0.417392        11.3578 
  44   0.0000       0.432878        11.7792 
  45   0.0000       0.471230        12.8228 
  46   0.0000       0.475986        12.9522 
  47   0.0000       0.480214        13.0673 
  48   0.0000       0.501990        13.6599 
  49   0.0000       0.502679        13.6786 
  50   0.0000       0.516633        14.0583 
  51   0.0000       0.543067        14.7776 
  52   0.0000       0.547777        14.9058 
  53   0.0000       0.567184        15.4339 
  54   0.0000       0.571459        15.5502 
  55   0.0000       0.595824        16.2132 
  56   0.0000       0.619365        16.8538 
  57   0.0000       0.631360        17.1802 
  58   0.0000       0.641286        17.4503 
  59   0.0000       0.644942        17.5498 
  60   0.0000       0.662457        18.0264 
  61   0.0000       0.673914        18.3381 
  62   0.0000       0.691753        18.8235 
  63   0.0000       0.697699        18.9853 
  64   0.0000       0.734830        19.9957 
  65   0.0000       0.783118        21.3097 
  66   0.0000       0.800615        21.7858 
  67   0.0000       0.814612        22.1667 
  68   0.0000       0.848904        23.0999 
  69   0.0000       0.882366        24.0104 
  70   0.0000       0.896563        24.3967 
  71   0.0000       0.938748        25.5446 
  72   0.0000       0.982448        26.7338 
  73   0.0000       0.997840        27.1526 
  74   0.0000       1.008555        27.4442 
  75   0.0000       1.037738        28.2383 
  76   0.0000       1.055907        28.7327 
  77   0.0000       1.062942        28.9241 
  78   0.0000       1.090760        29.6811 
  79   0.0000       1.115475        30.3536 
  80   0.0000       1.137404        30.9503 
  81   0.0000       1.146446        31.1964 
  82   0.0000       1.212983        33.0069 
  83   0.0000       1.272552        34.6279 
  84   0.0000       1.274545        34.6821 
  85   0.0000       1.370210        37.2853 
  86   0.0000       1.392433        37.8900 
  87   0.0000       1.415568        38.5196 
  88   0.0000       1.457855        39.6703 
  89   0.0000       1.477717        40.2107 
  90   0.0000       1.487610        40.4799 
  91   0.0000       1.504643        40.9434 
  92   0.0000       1.533909        41.7398 
  93   0.0000       1.553609        42.2759 
  94   0.0000       1.569067        42.6965 
  95   0.0000       1.587126        43.1879 
  96   0.0000       1.598015        43.4842 
  97   0.0000       1.630318        44.3632 
  98   0.0000       1.649327        44.8805 
  99   0.0000       1.676523        45.6205 
 100   0.0000       1.680022        45.7157 
 101   0.0000       1.698322        46.2137 
 102   0.0000       1.709897        46.5287 
 103   0.0000       1.715695        46.6864 
 104   0.0000       1.741573        47.3906 
 105   0.0000       1.784174        48.5499 
 106   0.0000       1.814475        49.3744 
 107   0.0000       1.826135        49.6917 
 108   0.0000       1.859452        50.5983 
 109   0.0000       1.867114        50.8067 
 110   0.0000       1.897428        51.6316 
 111   0.0000       1.945261        52.9332 
 112   0.0000       1.958264        53.2871 
 113   0.0000       1.986309        54.0502 
 114   0.0000       2.045168        55.6519 
 115   0.0000       2.061552        56.0977 
 116   0.0000       2.086407        56.7740 
 117   0.0000       2.165921        58.9377 
 118   0.0000       2.172092        59.1056 
 119   0.0000       2.220571        60.4248 
 120   0.0000       2.231178        60.7134 
 121   0.0000       2.277768        61.9812 
 122   0.0000       2.291637        62.3586 
 123   0.0000       2.309129        62.8346 
 124   0.0000       2.393459        65.1293 
 125   0.0000       2.424998        65.9876 
 126   0.0000       2.487082        67.6769 
 127   0.0000       2.535063        68.9826 
 128   0.0000       2.568942        69.9045 
 129   0.0000       2.642289        71.9003 
 130   0.0000       2.702117        73.5283 
 131   0.0000       2.762327        75.1667 
 132   0.0000       2.797858        76.1336 
 133   0.0000       2.846707        77.4628 
 134   0.0000       3.080851        83.8342 
 135   0.0000       3.143555        85.5405 
 136   0.0000       3.351337        91.1945 
 137   0.0000       3.443181        93.6937 

                    ********************************
                    * MULLIKEN POPULATION ANALYSIS *
                    ********************************

-----------------------
MULLIKEN ATOMIC CHARGES
-----------------------
   0 C :    0.012991
   1 C :   -0.041990
   2 C :    0.032627
   3 C :   -0.004949
   4 C :   -0.028602
   5 C :    0.153660
   6 O :   -0.180835
   7 H :   -0.024612
   8 H :   -0.011860
   9 H :    0.017040
  10 H :    0.057119
  11 H :    0.035688
  12 H :   -0.020395
  13 H :    0.012075
  14 H :   -0.007958
Sum of atomic charges:   -0.0000000

--------------------------------
MULLIKEN REDUCED ORBITAL CHARGES
--------------------------------
  0 C s       :     3.116506  s :     3.116506
      pz      :     0.991381  p :     2.805604
      px      :     0.916002
      py      :     0.898221
      dz2     :     0.004109  d :     0.064899
      dxz     :     0.013250
      dyz     :     0.004837
      dx2y2   :     0.026306
      dxy     :     0.016396
  1 C s       :     3.121352  s :     3.121352
      pz      :     0.945603  p :     2.854296
      px      :     0.951420
      py      :     0.957273
      dz2     :     0.005473  d :     0.066342
      dxz     :     0.011294
      dyz     :     0.010685
      dx2y2   :     0.018212
      dxy     :     0.020678
  2 C s       :     3.052945  s :     3.052945
      pz      :     0.966660  p :     2.871759
      px      :     0.926868
      py      :     0.978231
      dz2     :     0.003075  d :     0.042669
      dxz     :     0.004067
      dyz     :     0.009626
      dx2y2   :     0.014078
      dxy     :     0.011823
  3 C s       :     3.164940  s :     3.164940
      pz      :     0.956250  p :     2.776407
      px      :     0.897342
      py      :     0.922815
      dz2     :     0.004713  d :     0.063601
      dxz     :     0.012672
      dyz     :     0.005413
      dx2y2   :     0.024995
      dxy     :     0.015808
  4 C s       :     3.037671  s :     3.037671
      pz      :     0.998629  p :     2.927988
      px      :     0.944205
      py      :     0.985154
      dz2     :     0.013808  d :     0.062942
      dxz     :     0.014085
      dyz     :     0.003730
      dx2y2   :     0.017705
      dxy     :     0.013615
  5 C s       :     3.126094  s :     3.126094
      pz      :     0.813863  p :     2.574176
      px      :     0.937048
      py      :     0.823265
      dz2     :     0.028752  d :     0.146071
      dxz     :     0.033766
      dyz     :     0.020492
      dx2y2   :     0.024506
      dxy     :     0.038555
  6 O s       :     3.747105  s :     3.747105
      pz      :     1.314226  p :     4.414955
      px      :     1.779914
      py      :     1.320815
      dz2     :     0.004672  d :     0.018775
      dxz     :     0.002005
      dyz     :     0.006373
      dx2y2   :     0.003435
      dxy     :     0.002289
  7 H s       :     0.996149  s :     0.996149
      pz      :     0.005906  p :     0.028463
      px      :     0.004910
      py      :     0.017647
  8 H s       :     0.983557  s :     0.983557
      pz      :     0.009560  p :     0.028303
      px      :     0.008015
      py      :     0.010728
  9 H s       :     0.953187  s :     0.953187
      pz      :     0.007203  p :     0.029773
      px      :     0.016855
      py      :     0.005714
 10 H s       :     0.914263  s :     0.914263
      pz      :     0.017124  p :     0.028618
      px      :     0.004845
      py      :     0.006650
 11 H s       :     0.936019  s :     0.936019
      pz      :     0.006188  p :     0.028294
      px      :     0.004556
      py      :     0.017549
 12 H s       :     0.995409  s :     0.995409
      pz      :     0.003917  p :     0.024986
      px      :     0.016696
      py      :     0.004373
 13 H s       :     0.958166  s :     0.958166
      pz      :     0.010226  p :     0.029759
      px      :     0.008065
      py      :     0.011469
 14 H s       :     0.978993  s :     0.978993
      pz      :     0.006128  p :     0.028965
      px      :     0.004916
      py      :     0.017922


                     *******************************
                     * LOEWDIN POPULATION ANALYSIS *
                     *******************************

----------------------
LOEWDIN ATOMIC CHARGES
----------------------
   0 C :   -0.040412
   1 C :   -0.037374
   2 C :   -0.039237
   3 C :   -0.012255
   4 C :   -0.079300
   5 C :   -0.020167
   6 O :    0.001473
   7 H :    0.024801
   8 H :    0.029972
   9 H :    0.026170
  10 H :    0.056518
  11 H :    0.047346
  12 H :   -0.006307
  13 H :    0.021523
  14 H :    0.027251

-------------------------------
LOEWDIN REDUCED ORBITAL CHARGES
-------------------------------
  0 C s       :     2.825059  s :     2.825059
      pz      :     0.954276  p :     3.016692
      px      :     1.031861
      py      :     1.030555
      dz2     :     0.014783  d :     0.198660
      dxz     :     0.034584
      dyz     :     0.011899
      dx2y2   :     0.082367
      dxy     :     0.055028
  1 C s       :     2.827619  s :     2.827619
      pz      :     0.959403  p :     3.009907
      px      :     1.009312
      py      :     1.041192
      dz2     :     0.015327  d :     0.199848
      dxz     :     0.032290
      dyz     :     0.032950
      dx2y2   :     0.055046
      dxy     :     0.064235
  2 C s       :     2.848127  s :     2.848127
      pz      :     0.989678  p :     3.049019
      px      :     1.022363
      py      :     1.036979
      dz2     :     0.011201  d :     0.142091
      dxz     :     0.014811
      dyz     :     0.030511
      dx2y2   :     0.044139
      dxy     :     0.041430
  3 C s       :     2.830124  s :     2.830124
      pz      :     0.937051  p :     2.991695
      px      :     1.008792
      py      :     1.045852
      dz2     :     0.015970  d :     0.190437
      dxz     :     0.031065
      dyz     :     0.013858
      dx2y2   :     0.077202
      dxy     :     0.052342
  4 C s       :     2.807647  s :     2.807647
      pz      :     1.032689  p :     3.084107
      px      :     1.017444
      py      :     1.033974
      dz2     :     0.045018  d :     0.187547
      dxz     :     0.040211
      dyz     :     0.011102
      dx2y2   :     0.054052
      dxy     :     0.037165
  5 C s       :     2.880472  s :     2.880472
      pz      :     0.860429  p :     2.760069
      px      :     1.017997
      py      :     0.881644
      dz2     :     0.058850  d :     0.379626
      dxz     :     0.093492
      dyz     :     0.062817
      dx2y2   :     0.058302
      dxy     :     0.106166
  6 O s       :     3.495440  s :     3.495440
      pz      :     1.355004  p :     4.470653
      px      :     1.743228
      py      :     1.372421
      dz2     :     0.005591  d :     0.032435
      dxz     :     0.003590
      dyz     :     0.013408
      dx2y2   :     0.005690
      dxy     :     0.004155
  7 H s       :     0.896897  s :     0.896897
      pz      :     0.017656  p :     0.078302
      px      :     0.015532
      py      :     0.045114
  8 H s       :     0.892231  s :     0.892231
      pz      :     0.025699  p :     0.077797
      px      :     0.023555
      py      :     0.028543
  9 H s       :     0.892624  s :     0.892624
      pz      :     0.021449  p :     0.081206
      px      :     0.043864
      py      :     0.015893
 10 H s       :     0.865569  s :     0.865569
      pz      :     0.044547  p :     0.077913
      px      :     0.016137
      py      :     0.017229
 11 H s       :     0.875138  s :     0.875138
      pz      :     0.016407  p :     0.077516
      px      :     0.015162
      py      :     0.045947
 12 H s       :     0.932345  s :     0.932345
      pz      :     0.012833  p :     0.073962
      px      :     0.047115
      py      :     0.014014
 13 H s       :     0.896876  s :     0.896876
      pz      :     0.028020  p :     0.081602
      px      :     0.023490
      py      :     0.030092
 14 H s       :     0.890554  s :     0.890554
      pz      :     0.018178  p :     0.082196
      px      :     0.016061
      py      :     0.047957


                      *****************************
                      * MAYER POPULATION ANALYSIS *
                      *****************************

  NA   - Mulliken gross atomic population
  ZA   - Total nuclear charge
  QA   - Mulliken gross atomic charge
  VA   - Mayer's total valence
  BVA  - Mayer's bonded valence
  FA   - Mayer's free valence

  ATOM       NA         ZA         QA         VA         BVA        FA
  0 C      5.9870     6.0000     0.0130     4.0012     4.0012     0.0000
  1 C      6.0420     6.0000    -0.0420     4.1544     4.1544    -0.0000
  2 C      5.9674     6.0000     0.0326     3.9752     3.9752    -0.0000
  3 C      6.0049     6.0000    -0.0049     4.0231     4.0231     0.0000
  4 C      6.0286     6.0000    -0.0286     3.8951     3.8951    -0.0000
  5 C      5.8463     6.0000     0.1537     4.2001     4.2001     0.0000
  6 O      8.1808     8.0000    -0.1808     2.3528     2.3528    -0.0000
  7 H      1.0246     1.0000    -0.0246     0.9807     0.9807    -0.0000
  8 H      1.0119     1.0000    -0.0119     0.9721     0.9721    -0.0000
  9 H      0.9830     1.0000     0.0170     0.9695     0.9695    -0.0000
 10 H      0.9429     1.0000     0.0571     0.9659     0.9659     0.0000
 11 H      0.9643     1.0000     0.0357     0.9821     0.9821     0.0000
 12 H      1.0204     1.0000    -0.0204     0.9652     0.9652    -0.0000
 13 H      0.9879     1.0000     0.0121     0.9819     0.9819    -0.0000
 14 H      1.0080     1.0000    -0.0080     1.0106     1.0106     0.0000

  Mayer bond orders larger than 0.1
B(  0-C ,  1-C ) :   1.1342 B(  0-C ,  3-C ) :   1.8705 B(  0-C ,  7-H ) :   0.9325 
B(  1-C ,  2-C ) :   1.9948 B(  1-C ,  8-H ) :   0.9344 B(  2-C ,  9-H ) :   0.9331 
B(  2-C , 13-H ) :   0.9354 B(  3-C ,  4-C ) :   1.0599 B(  3-C , 14-H ) :   0.9447 
B(  4-C ,  5-C ) :   1.0045 B(  4-C , 10-H ) :   0.9029 B(  4-C , 11-H ) :   0.9211 
B(  5-C ,  6-O ) :   2.2387 B(  5-C , 12-H ) :   0.9136 

-------
TIMINGS
-------

Total SCF time: 0 days 0 hours 0 min 51 sec 

Total time                  ....      51.111 sec
Sum of individual times     ....      43.626 sec  ( 85.4%)

Fock matrix formation       ....      36.354 sec  ( 71.1%)
  Split-RI-J                ....       5.318 sec  ( 14.6% of F)
  Chain of spheres X        ....      12.142 sec  ( 33.4% of F)
  XC integration            ....       8.012 sec  ( 22.0% of F)
    Basis function eval.    ....       0.597 sec  (  7.5% of XC)
    Density eval.           ....       0.257 sec  (  3.2% of XC)
    XC-Functional eval.     ....       0.093 sec  (  1.2% of XC)
    XC-Potential eval.      ....       0.461 sec  (  5.8% of XC)
Diagonalization             ....       0.049 sec  (  0.1%)
Density matrix formation    ....       0.054 sec  (  0.1%)
Population analysis         ....       0.626 sec  (  1.2%)
Initial guess               ....       0.045 sec  (  0.1%)
Orbital Transformation      ....       0.000 sec  (  0.0%)
Orbital Orthonormalization  ....       0.004 sec  (  0.0%)
DIIS solution               ....       0.001 sec  (  0.0%)
SOSCF solution              ....       0.634 sec  (  1.2%)
Grid generation             ....       5.864 sec  ( 11.5%)

-------------------------   --------------------
FINAL SINGLE POINT ENERGY      -308.446491638813
-------------------------   --------------------

                                *** OPTIMIZATION RUN DONE ***

                            ***************************************
                            *     ORCA property calculations      *
                            ***************************************

                                    ---------------------
                                    Active property flags
                                    ---------------------
   (+) Dipole Moment


------------------------------------------------------------------------------
                       ORCA ELECTRIC PROPERTIES CALCULATION
------------------------------------------------------------------------------

Dipole Moment Calculation                       ... on
Quadrupole Moment Calculation                   ... off
Polarizability Calculation                      ... off
GBWName                                         ... frag_12_c00002.gbw
Electron density file                           ... frag_12_c00002.scfp.tmp
The origin for moment calculation is the CENTER OF MASS  = (-0.536453,  0.528585 -0.245510)

-------------
DIPOLE MOMENT
-------------
                                X             Y             Z
Electronic contribution:     -3.90810      -1.35310      -1.70769
Nuclear contribution   :      3.96984       2.03433       2.36960
                        -----------------------------------------
Total Dipole Moment    :      0.06174       0.68123       0.66191
                        -----------------------------------------
Magnitude (a.u.)       :      0.95185
Magnitude (Debye)      :      2.41940


Timings for individual modules:

Sum of individual times         ...      885.455 sec (=  14.758 min)
GTO integral calculation        ...       45.220 sec (=   0.754 min)   5.1 %
SCF iterations                  ...      741.222 sec (=  12.354 min)  83.7 %
SCF Gradient evaluation         ...       92.250 sec (=   1.538 min)  10.4 %
Geometry relaxation             ...        6.764 sec (=   0.113 min)   0.8 %
                             ****ORCA TERMINATED NORMALLY****
TOTAL RUN TIME: 0 days 0 hours 15 minutes 17 seconds 404 msec
