
                                 *****************
                                 * O   R   C   A *
                                 *****************

           --- An Ab Initio, DFT and Semiempirical electronic structure package ---

                  #######################################################
                  #                        -***-                        #
                  #  Department of molecular theory and spectroscopy    #
                  #              Directorship: Frank Neese              #
                  # Max Planck Institute for Chemical Energy Conversion #
                  #                  D-45470 Muelheim/Ruhr              #
                  #                       Germany                       #
                  #                                                     #
                  #                  All rights reserved                #
                  #                        -***-                        #
                  #######################################################


                         Program Version 4.0.1 -  RELEASE  -


 With contributions from (in alphabetic order):
   Daniel Aravena         : Magnetic Properties
   Michael Atanasov       : Ab Initio Ligand Field Theory
   Ute Becker             : Parallelization
   Martin Brehm           : Molecular dynamics
   Dmytro Bykov           : SCF Hessian
   Vijay G. Chilkuri      : MRCI spin determinant printing
   Dipayan Datta          : RHF DLPNO-CCSD density
   Achintya Kumar Dutta   : EOM-CC, STEOM-CC
   Dmitry Ganyushin       : Spin-Orbit,Spin-Spin,Magnetic field MRCI
   Yang Guo               : DLPNO-NEVPT2, CIM, IAO-localization
   Andreas Hansen         : Spin unrestricted coupled pair/coupled cluster methods
   Lee Huntington         : MR-EOM, pCC
   Robert Izsak           : Overlap fitted RIJCOSX, COSX-SCS-MP3, EOM
   Christian Kollmar      : KDIIS, OOCD, Brueckner-CCSD(T), CCSD density
   Simone Kossmann        : Meta GGA functionals, TD-DFT gradient, OOMP2, MP2 Hessian
   Martin Krupicka        : AUTO-CI
   Dagmar Lenk            : GEPOL surface
   Dimitrios Liakos       : Extrapolation schemes; parallel MDCI
   Dimitrios Manganas     : ROCIS; embedding schemes
   Dimitrios Pantazis     : SARC Basis sets
   Taras Petrenko         : DFT Hessian,TD-DFT gradient, ASA, ECA, R-Raman, ABS, FL, XAS/XES, NRVS
   Peter Pinski           : DLPNO-MP2
   Christoph Reimann      : Effective Core Potentials
   Marius Retegan         : Local ZFS, SOC
   Christoph Riplinger    : Optimizer, TS searches, QM/MM, DLPNO-CCSD(T), (RO)-DLPNO pert. Triples
   Tobias Risthaus        : Range-separated hybrids, TD-DFT gradient, RPA, STAB
   Michael Roemelt        : Restricted open shell CIS
   Masaaki Saitow         : Open-shell DLPNO
   Barbara Sandhoefer     : DKH picture change effects
   Kantharuban Sivalingam : CASSCF convergence, NEVPT2, FIC-MRCI
   Georgi Stoychev        : AutoAux
   Boris Wezisla          : Elementary symmetry handling
   Frank Wennmohs         : Technical directorship


 We gratefully acknowledge several colleagues who have allowed us to
 interface, adapt or use parts of their codes:
   Stefan Grimme, W. Hujo, H. Kruse,             : VdW corrections, initial TS optimization,
                  C. Bannwarth                     DFT functionals, gCP, sTDA/sTD-DF
   Ed Valeev                                     : LibInt (2-el integral package), F12 methods
   Garnet Chan, S. Sharma, J. Yang, R. Olivares  : DMRG
   Ulf Ekstrom                                   : XCFun DFT Library
   Mihaly Kallay                                 : mrcc  (arbitrary order and MRCC methods)
   Andreas Klamt, Michael Diedenhofen            : otool_cosmo (COSMO solvation model)
   Jiri Pittner, Ondrej Demel                    : Mk-CCSD
   Frank Weinhold                                : gennbo (NPA and NBO analysis)
   Christopher J. Cramer and Donald G. Truhlar   : smd solvation model


 Your calculation uses the libint2 library for the computation of 2-el integrals
 For citations please refer to: http://libint.valeyev.net

 This ORCA versions uses:
   CBLAS   interface :  Fast vector & matrix operations
   LAPACKE interface :  Fast linear algebra routines
   SCALAPACK package :  Parallel linear algebra routines


Your calculation utilizes the basis: cc-pVDZ 
       H, B-Ne : Obtained from the ccRepo (grant-hill.group.shef.ac.uk/ccrepo) Feb. 2017
                 T. H. Dunning, Jr., J. Chem. Phys. 90, 1007 (1989)
            He : Obtained from the ccRepo (grant-hill.group.shef.ac.uk/ccrepo) Feb. 2017
                 D. E. Woon, T. H. Dunning, Jr., J. Chem. Phys. 100, 2975 (1994)
  Li-Be, Na-Mg : Obtained from the ccRepo (grant-hill.group.shef.ac.uk/ccrepo) Feb. 2017
                 B. P. Prascher, D. E. Woon, K. A. Peterson, T. H. Dunning, Jr., A. K. Wilson, Theor. Chem. Acc. 128, 69 (2011)
         Al-Ar : Obtained from the ccRepo (grant-hill.group.shef.ac.uk/ccrepo) Feb. 2017
                 D. E. Woon, T. H. Dunning, Jr., J. Chem. Phys. 98, 1358 (1993)
            Ca : Obtained from the Peterson Research Group Website (tyr0.chem.wsu.edu/~kipeters) Feb. 2017
                 J. Koput, K. A. Peterson, J. Phys. Chem. 106, 9595 (2002)
         Sc-Zn : Obtained from the ccRepo (grant-hill.group.shef.ac.uk/ccrepo) Feb. 2017
                 N. B. Balabanov, K. A. Peterson, J. Chem. Phys. 123, 064107 (2005)
                 N. B. Balabanov, K. A. Peterson, J. Chem. Phys. 125, 074110 (2006)
         Ga-Kr : Obtained from the ccRepo (grant-hill.group.shef.ac.uk/ccrepo) Feb. 2017
                 A. K. Wilson, D. E. Woon, K. A. Peterson, T. H. Dunning, Jr., J. Chem. Phys. 110, 7667 (1999)

Your calculation utilizes the auxiliary basis: def2/J
   F. Weigend, Phys. Chem. Chem. Phys. 8, 1057 (2006).

================================================================================
                                        WARNINGS
                       Please study these warnings very carefully!
================================================================================

Warning: TCutStore was < 0. Adjusted to Thresh (uncritical)

WARNING: Geometry Optimization
  ===> : Switching off AutoStart
         For restart on a previous wavefunction, please use MOREAD

INFO   : the flag for use of LIBINT has been found!

================================================================================
                                       INPUT FILE
================================================================================
NAME = frag_12_c00001.com
|  1> %pal nprocs 2 end
|  2> %maxcore 1000
|  3> ! b3lyp TIGHTSCF
|  4> ! cc-pvdz def2/J RIJCOSX
|  5> ! Opt
|  6> 
|  7> %geom
|  8> maxiter 60
|  9> TolE 1e-4
| 10> TolRMSG 2e-3
| 11> TolMaxG 3e-3
| 12> TolRMSD 2e-2
| 13> TolMaxD 3e-2
| 14> end
| 15> 
| 16> *xyz 0 1
| 17> C 2.6885 -0.4657 -0.174
| 18> C 1.6876 -1.238 0.2659
| 19> C 0.3196 -0.8377 0.5136
| 20> C -0.2034 0.3882 0.3507
| 21> C -1.6268 0.7425 0.6656
| 22> C -2.6722 0.0618 -0.2025
| 23> O -2.4564 -0.7904 -1.0578
| 24> H 3.6768 -0.8883 -0.327
| 25> H 1.8967 -2.2897 0.4602
| 26> H -0.3245 -1.6421 0.8694
| 27> H -1.851 0.5081 1.7121
| 28> H -1.7603 1.823 0.5394
| 29> H -3.7081 0.3868 -0.0013
| 30> H 2.5663 0.5872 -0.3985
| 31> H 0.4137 1.2049 -0.012
| 32> *
| 33> 
| 34> 
| 35>                          ****END OF INPUT****
================================================================================

                       *****************************
                       * Geometry Optimization Run *
                       *****************************

Geometry optimization settings:
Update method            Update   .... BFGS
Choice of coordinates    CoordSys .... Redundant Internals
Initial Hessian          InHess   .... Almoef's Model

Convergence Tolerances:
Energy Change            TolE     ....  1.0000e-04 Eh
Max. Gradient            TolMAXG  ....  3.0000e-03 Eh/bohr
RMS Gradient             TolRMSG  ....  2.0000e-03 Eh/bohr
Max. Displacement        TolMAXD  ....  3.0000e-02 bohr
RMS Displacement         TolRMSD  ....  2.0000e-02 bohr

------------------------------------------------------------------------------
                        ORCA OPTIMIZATION COORDINATE SETUP
------------------------------------------------------------------------------

The optimization will be done in new redundant internal coordinates
Making redundant internal coordinates   ...  (new redundants) done
Evaluating the initial hessian          ...  (Almloef) done
Evaluating the coordinates              ...  done
Calculating the B-matrix                .... done
Calculating the G-matrix                .... done
Diagonalizing the G-matrix              .... done
Small eigenvalue found = 2.101e-02
The first mode is                       ....   20
The number of degrees of freedom        ....   39

    -----------------------------------------------------------------
                    Redundant Internal Coordinates


    -----------------------------------------------------------------
         Definition                    Initial Value    Approx d2E/dq
    -----------------------------------------------------------------
      1. B(C   1,C   0)                  1.3386         0.754740   
      2. B(C   2,C   1)                  1.4467         0.507264   
      3. B(C   3,C   2)                  1.3427         0.743312   
      4. B(C   4,C   3)                  1.5003         0.416713   
      5. B(C   5,C   4)                  1.5198         0.387830   
      6. B(O   6,C   5)                  1.2265         1.020226   
      7. B(H   7,C   0)                  1.0857         0.365838   
      8. B(H   8,C   1)                  1.0897         0.360435   
      9. B(H   9,C   2)                  1.0902         0.359847   
     10. B(H  10,C   4)                  1.0956         0.352749   
     11. B(H  11,C   4)                  1.0960         0.352242   
     12. B(H  12,C   5)                  1.1042         0.341832   
     13. B(H  13,C   0)                  1.0835         0.368828   
     14. B(H  14,C   3)                  1.0860         0.365451   
     15. A(C   1,C   0,H  13)          122.9861         0.366421   
     16. A(C   1,C   0,H   7)          120.1586         0.365910   
     17. A(H   7,C   0,H  13)          116.8544         0.292664   
     18. A(C   0,C   1,H   8)          118.1600         0.364979   
     19. A(C   0,C   1,C   2)          127.1336         0.433751   
     20. A(C   2,C   1,H   8)          114.7048         0.341243   
     21. A(C   1,C   2,H   9)          114.2289         0.341149   
     22. A(C   1,C   2,C   3)          126.8814         0.432563   
     23. A(C   3,C   2,H   9)          118.8897         0.363926   
     24. A(C   2,C   3,C   4)          124.0353         0.417607   
     25. A(C   4,C   3,H  14)          115.5712         0.331019   
     26. A(C   2,C   3,H  14)          120.3840         0.364889   
     27. A(H  10,C   4,H  11)          107.2160         0.288899   
     28. A(C   5,C   4,H  11)          106.9774         0.325140   
     29. A(C   3,C   4,H  11)          108.9181         0.329010   
     30. A(C   5,C   4,H  10)          107.9993         0.325216   
     31. A(C   3,C   4,H  10)          110.1278         0.329088   
     32. A(C   3,C   4,C   5)          115.2741         0.372616   
     33. A(C   4,C   5,O   6)          126.0496         0.433473   
     34. A(O   6,C   5,H  12)          119.7782         0.378538   
     35. A(C   4,C   5,H  12)          114.1677         0.323542   
     36. D(C   2,C   1,C   0,H   7)   -179.6286         0.040673   
     37. D(C   2,C   1,C   0,H  13)      0.0225         0.040673   
     38. D(H   8,C   1,C   0,H  13)    179.5510         0.040673   
     39. D(H   8,C   1,C   0,H   7)     -0.1000         0.040673   
     40. D(H   9,C   2,C   1,C   0)    179.8947         0.017533   
     41. D(C   3,C   2,C   1,H   8)   -179.6903         0.017533   
     42. D(H   9,C   2,C   1,H   8)      0.3522         0.017533   
     43. D(C   3,C   2,C   1,C   0)     -0.1479         0.017533   
     44. D(H  14,C   3,C   2,H   9)   -179.3791         0.039335   
     45. D(H  14,C   3,C   2,C   1)      0.6652         0.039335   
     46. D(C   4,C   3,C   2,H   9)      1.7944         0.039335   
     47. D(C   4,C   3,C   2,C   1)   -178.1613         0.039335   
     48. D(H  10,C   4,C   3,C   2)     56.9707         0.012847   
     49. D(C   5,C   4,C   3,H  14)    115.6144         0.012847   
     50. D(C   5,C   4,C   3,C   2)    -65.5079         0.012847   
     51. D(H  11,C   4,C   3,H  14)     -4.5950         0.012847   
     52. D(H  11,C   4,C   3,C   2)    174.2827         0.012847   
     53. D(H  10,C   4,C   3,H  14)   -121.9071         0.012847   
     54. D(H  12,C   5,C   4,H  11)    -54.7981         0.011197   
     55. D(H  12,C   5,C   4,H  10)     60.3259         0.011197   
     56. D(H  12,C   5,C   4,C   3)   -176.0647         0.011197   
     57. D(O   6,C   5,C   4,H  11)    125.9784         0.011197   
     58. D(O   6,C   5,C   4,H  10)   -118.8976         0.011197   
     59. D(O   6,C   5,C   4,C   3)      4.7118         0.011197   
    -----------------------------------------------------------------

Number of atoms                         .... 15
Number of degrees of freedom            .... 59

         *************************************************************
         *                GEOMETRY OPTIMIZATION CYCLE   1            *
         *************************************************************
---------------------------------
CARTESIAN COORDINATES (ANGSTROEM)
---------------------------------
  C      2.688500   -0.465700   -0.174000
  C      1.687600   -1.238000    0.265900
  C      0.319600   -0.837700    0.513600
  C     -0.203400    0.388200    0.350700
  C     -1.626800    0.742500    0.665600
  C     -2.672200    0.061800   -0.202500
  O     -2.456400   -0.790400   -1.057800
  H      3.676800   -0.888300   -0.327000
  H      1.896700   -2.289700    0.460200
  H     -0.324500   -1.642100    0.869400
  H     -1.851000    0.508100    1.712100
  H     -1.760300    1.823000    0.539400
  H     -3.708100    0.386800   -0.001300
  H      2.566300    0.587200   -0.398500
  H      0.413700    1.204900   -0.012000

----------------------------
CARTESIAN COORDINATES (A.U.)
----------------------------
  NO LB      ZA    FRAG     MASS         X           Y           Z
   0 C     6.0000    0    12.011    5.080529   -0.880045   -0.328812
   1 C     6.0000    0    12.011    3.189102   -2.339481    0.502478
   2 C     6.0000    0    12.011    0.603956   -1.583024    0.970563
   3 C     6.0000    0    12.011   -0.384370    0.733592    0.662727
   4 C     6.0000    0    12.011   -3.074206    1.403122    1.257802
   5 C     6.0000    0    12.011   -5.049726    0.116785   -0.382670
   6 O     8.0000    0    15.999   -4.641923   -1.493640   -1.998952
   7 H     1.0000    0     1.008    6.948145   -1.678644   -0.617940
   8 H     1.0000    0     1.008    3.584244   -4.326906    0.869652
   9 H     1.0000    0     1.008   -0.613216   -3.103119    1.642928
  10 H     1.0000    0     1.008   -3.497883    0.960170    3.235400
  11 H     1.0000    0     1.008   -3.326485    3.444971    1.019318
  12 H     1.0000    0     1.008   -7.007293    0.730946   -0.002457
  13 H     1.0000    0     1.008    4.849604    1.109647   -0.753056
  14 H     1.0000    0     1.008    0.781780    2.276931   -0.022677

--------------------------------
INTERNAL COORDINATES (ANGSTROEM)
--------------------------------
 C      0   0   0     0.000000000000     0.00000000     0.00000000
 C      1   0   0     1.338566438396     0.00000000     0.00000000
 C      2   1   0     1.446727127001   127.13362015     0.00000000
 C      3   2   1     1.342719710141   126.88140246   359.85212354
 C      4   3   2     1.500252665387   124.03529849   181.83870319
 C      5   4   3     1.519806323187   115.27414755   294.49212164
 O      6   5   4     1.226520513485   126.04964038     4.71176806
 H      1   2   3     1.085696389420   120.15863435   180.37144920
 H      2   1   3     1.089746846749   118.16003686   179.52850577
 H      3   2   1     1.090191639117   114.22885842   179.89466871
 H      5   4   3     1.095614553573   110.12777579    56.97065471
 H      5   4   3     1.096005903269   108.91811696   174.28270002
 H      6   5   4     1.104171748416   114.16772421   183.93527500
 H      1   2   3     1.083481195038   122.98614973     0.00000000
 H      4   3   2     1.085984617755   120.38397978     0.66517050

---------------------------
INTERNAL COORDINATES (A.U.)
---------------------------
 C      0   0   0     0.000000000000     0.00000000     0.00000000
 C      1   0   0     2.529523980627     0.00000000     0.00000000
 C      2   1   0     2.733918060546   127.13362015     0.00000000
 C      3   2   1     2.537372526784   126.88140246   359.85212354
 C      4   3   2     2.835066669266   124.03529849   181.83870319
 C      5   4   3     2.872017727426   115.27414755   294.49212164
 O      6   5   4     2.317787868123   126.04964038     4.71176806
 H      1   2   3     2.051668840591   120.15863435   180.37144920
 H      2   1   3     2.059323095660   118.16003686   179.52850577
 H      3   2   1     2.060163631421   114.22885842   179.89466871
 H      5   4   3     2.070411454591   110.12777579    56.97065471
 H      5   4   3     2.071150998339   108.91811696   174.28270002
 H      6   5   4     2.086582209319   114.16772421   183.93527500
 H      1   2   3     2.047482729875   122.98614973     0.00000000
 H      4   3   2     2.052213513208   120.38397978     0.66517050

---------------------
BASIS SET INFORMATION
---------------------
There are 3 groups of distinct atoms

 Group   1 Type C   : 17s4p1d contracted to 3s2p1d pattern {881/31/1}
 Group   2 Type O   : 17s4p1d contracted to 3s2p1d pattern {881/31/1}
 Group   3 Type H   : 4s1p contracted to 2s1p pattern {31/1}

Atom   0C    basis set group =>   1
Atom   1C    basis set group =>   1
Atom   2C    basis set group =>   1
Atom   3C    basis set group =>   1
Atom   4C    basis set group =>   1
Atom   5C    basis set group =>   1
Atom   6O    basis set group =>   2
Atom   7H    basis set group =>   3
Atom   8H    basis set group =>   3
Atom   9H    basis set group =>   3
Atom  10H    basis set group =>   3
Atom  11H    basis set group =>   3
Atom  12H    basis set group =>   3
Atom  13H    basis set group =>   3
Atom  14H    basis set group =>   3
-------------------------------
AUXILIARY BASIS SET INFORMATION
-------------------------------
There are 3 groups of distinct atoms

 Group   1 Type C   : 12s5p4d2f1g contracted to 6s4p3d1f1g pattern {711111/2111/211/2/1}
 Group   2 Type O   : 12s5p4d2f1g contracted to 6s4p3d1f1g pattern {711111/2111/211/2/1}
 Group   3 Type H   : 5s2p1d contracted to 3s1p1d pattern {311/2/1}

Atom   0C    basis set group =>   1
Atom   1C    basis set group =>   1
Atom   2C    basis set group =>   1
Atom   3C    basis set group =>   1
Atom   4C    basis set group =>   1
Atom   5C    basis set group =>   1
Atom   6O    basis set group =>   2
Atom   7H    basis set group =>   3
Atom   8H    basis set group =>   3
Atom   9H    basis set group =>   3
Atom  10H    basis set group =>   3
Atom  11H    basis set group =>   3
Atom  12H    basis set group =>   3
Atom  13H    basis set group =>   3
Atom  14H    basis set group =>   3


           ************************************************************
           *        Program running with 2 parallel MPI-processes     *
           *              working on a common directory               *
           ************************************************************
------------------------------------------------------------------------------
                           ORCA GTO INTEGRAL CALCULATION
                           -- RI-GTO INTEGRALS CHOSEN --
------------------------------------------------------------------------------

                         BASIS SET STATISTICS AND STARTUP INFO

Gaussian basis set:
 # of primitive gaussian shells          ...  194
 # of primitive gaussian functions       ...  294
 # of contracted shells                  ...   66
 # of contracted basis functions         ...  138
 Highest angular momentum                ...    2
 Maximum contraction depth               ...    8
Auxiliary gaussian basis set:
 # of primitive gaussian shells          ...  232
 # of primitive gaussian functions       ...  618
 # of contracted shells                  ...  145
 # of contracted aux-basis functions     ...  431
 Highest angular momentum                ...    4
 Maximum contraction depth               ...    7
Ratio of auxiliary to basis functions    ...  3.12
Integral package used                  ... LIBINT
 One Electron integrals                  ... done
 Ordering auxiliary basis shells         ... done
 Integral threshhold             Thresh  ...  2.500e-11
 Primitive cut-off               TCut    ...  2.500e-12
 Pre-screening matrix                    ... done
 Shell pair data                         ... 
 Ordering of the shell pairs             ... done (   0.000 sec) 2107 of 2211 pairs
 Determination of significant pairs      ... done (   0.000 sec)
 Creation of shell pair data             ... done (   0.001 sec)
 Storage of shell pair data              ... done (   0.527 sec)
 Shell pair data done in (   0.528 sec)
 Computing two index integrals           ... done
 Cholesky decomposition of the V-matrix  ... done


Timings:
 Total evaluation time                   ...   3.043 sec (  0.051 min)
 One electron matrix time                ...   1.264 sec (  0.021 min) = 41.5%
 Schwartz matrix evaluation time         ...   0.198 sec (  0.003 min) =  6.5%
 Two index repulsion integral time       ...   0.352 sec (  0.006 min) = 11.6%
 Cholesky decomposition of V             ...   0.642 sec (  0.011 min) = 21.1%
 Three index repulsion integral time     ...   0.000 sec (  0.000 min) =  0.0%



           ************************************************************
           *        Program running with 2 parallel MPI-processes     *
           *              working on a common directory               *
           ************************************************************
-------------------------------------------------------------------------------
                                 ORCA SCF
-------------------------------------------------------------------------------

------------
SCF SETTINGS
------------
Hamiltonian:
 Density Functional     Method          .... DFT(GTOs)
 Exchange Functional    Exchange        .... B88
   X-Alpha parameter    XAlpha          ....  0.666667
   Becke's b parameter  XBeta           ....  0.004200
 Correlation Functional Correlation     .... LYP
 LDA part of GGA corr.  LDAOpt          .... VWN-5
 Gradients option       PostSCFGGA      .... off
 Hybrid DFT is turned on
   Fraction HF Exchange ScalHFX         ....  0.200000
   Scaling of DF-GGA-X  ScalDFX         ....  0.720000
   Scaling of DF-GGA-C  ScalDFC         ....  0.810000
   Scaling of DF-LDA-C  ScalLDAC        ....  1.000000
   Perturbative correction              ....  0.000000
   NL short-range parameter             ....  4.800000
 RI-approximation to the Coulomb term is turned on
   Number of auxiliary basis functions  .... 431
   RIJ-COSX (HFX calculated with COS-X)).... on


General Settings:
 Integral files         IntName         .... frag_12_c00001
 Hartree-Fock type      HFTyp           .... RHF
 Total Charge           Charge          ....    0
 Multiplicity           Mult            ....    1
 Number of Electrons    NEL             ....   52
 Basis Dimension        Dim             ....  138
 Nuclear Repulsion      ENuc            ....    263.6776656540 Eh

Convergence Acceleration:
 DIIS                   CNVDIIS         .... on
   Start iteration      DIISMaxIt       ....    12
   Startup error        DIISStart       ....  0.200000
   # of expansion vecs  DIISMaxEq       ....     5
   Bias factor          DIISBfac        ....   1.050
   Max. coefficient     DIISMaxC        ....  10.000
 Newton-Raphson         CNVNR           .... off
 SOSCF                  CNVSOSCF        .... on
   Start iteration      SOSCFMaxIt      ....   150
   Startup grad/error   SOSCFStart      ....  0.003300
 Level Shifting         CNVShift        .... on
   Level shift para.    LevelShift      ....    0.2500
   Turn off err/grad.   ShiftErr        ....    0.0010
 Zerner damping         CNVZerner       .... off
 Static damping         CNVDamp         .... on
   Fraction old density DampFac         ....    0.7000
   Max. Damping (<1)    DampMax         ....    0.9800
   Min. Damping (>=0)   DampMin         ....    0.0000
   Turn off err/grad.   DampErr         ....    0.1000
 Fernandez-Rico         CNVRico         .... off

SCF Procedure:
 Maximum # iterations   MaxIter         ....   125
 SCF integral mode      SCFMode         .... Direct
   Integral package                     .... LIBINT
 Reset frequeny         DirectResetFreq ....    20
 Integral Threshold     Thresh          ....  2.500e-11 Eh
 Primitive CutOff       TCut            ....  2.500e-12 Eh

Convergence Tolerance:
 Convergence Check Mode ConvCheckMode   .... Total+1el-Energy
 Convergence forced     ConvForced      .... 0
 Energy Change          TolE            ....  1.000e-08 Eh
 1-El. energy change                    ....  1.000e-05 Eh
 Orbital Gradient       TolG            ....  1.000e-05
 Orbital Rotation angle TolX            ....  1.000e-05
 DIIS Error             TolErr          ....  5.000e-07


Diagonalization of the overlap matrix:
Smallest eigenvalue                        ... 1.316e-03
Time for diagonalization                   ...    0.007 sec
Threshold for overlap eigenvalues          ... 1.000e-08
Number of eigenvalues below threshold      ... 0
Time for construction of square roots      ...    0.905 sec
Total time needed                          ...    0.914 sec

-------------------
DFT GRID GENERATION
-------------------

General Integration Accuracy     IntAcc      ...  4.340
Radial Grid Type                 RadialGrid  ... Gauss-Chebyshev
Angular Grid (max. acc.)         AngularGrid ... Lebedev-110
Angular grid pruning method      GridPruning ... 3 (G Style)
Weight generation scheme         WeightScheme... Becke
Basis function cutoff            BFCut       ...    1.0000e-11
Integration weight cutoff        WCut        ...    1.0000e-14
Grids for H and He will be reduced by one unit

# of grid points (after initial pruning)     ...  18004 (   0.0 sec)
# of grid points (after weights+screening)   ...  16838 (   0.0 sec)
nearest neighbour list constructed           ...    0.0 sec
Grid point re-assignment to atoms done       ...    0.0 sec
Grid point division into batches done        ...    0.0 sec
Reduced shell lists constructed in    0.1 sec

Total number of grid points                  ...    16838
Total number of batches                      ...      272
Average number of points per batch           ...       61
Average number of grid points per atom       ...     1123
Average number of shells per batch           ...    52.18 (79.05%)
Average number of basis functions per batch  ...   106.86 (77.44%)
Average number of large shells per batch     ...    41.77 (80.05%)
Average number of large basis fcns per batch ...    85.43 (79.95%)
Maximum spatial batch extension              ...  17.47, 19.97, 21.59 au
Average spatial batch extension              ...   1.45,  1.49,  1.68 au

Time for grid setup =    1.265 sec

------------------------------
INITIAL GUESS: MODEL POTENTIAL
------------------------------
Loading Hartree-Fock densities                     ... done
Calculating cut-offs                               ... done
Setting up the integral package                    ... done
Initializing the effective Hamiltonian             ... done
Starting the Coulomb interaction                   ... done (   0.1 sec)
Reading the grid                                   ... done
Mapping shells                                     ... done
Starting the XC term evaluation                    ... done (   0.2 sec)
  promolecular density results
     # of electrons  =     52.002008730
     EX              =    -41.345738184
     EC              =     -1.713873687
     EX+EC           =    -43.059611871
Transforming the Hamiltonian                       ... done (   0.3 sec)
Diagonalizing the Hamiltonian                      ... done (   0.0 sec)
Back transforming the eigenvectors                 ... done (   0.0 sec)
Now organizing SCF variables                       ... done
                      ------------------
                      INITIAL GUESS DONE (   2.1 sec)
                      ------------------
--------------------
COSX GRID GENERATION
--------------------

General Integration Accuracy     IntAcc      ...  3.340
Radial Grid Type                 RadialGrid  ... Gauss-Chebyshev
Angular Grid (max. acc.)         AngularGrid ... Lebedev-50
Angular grid pruning method      GridPruning ... 3 (G Style)
Weight generation scheme         WeightScheme... Becke
Basis function cutoff            BFCut       ...    1.0000e-11
Integration weight cutoff        WCut        ...    1.0000e-14
Grids for H and He will be reduced by one unit

# of grid points (after initial pruning)     ...   6620 (   0.1 sec)
# of grid points (after weights+screening)   ...   6233 (   0.0 sec)
nearest neighbour list constructed           ...    0.0 sec
Grid point re-assignment to atoms done       ...    0.0 sec
Grid point division into batches done        ...    0.0 sec
Reduced shell lists constructed in    0.0 sec

Total number of grid points                  ...     6233
Total number of batches                      ...      106
Average number of points per batch           ...       58
Average number of grid points per atom       ...      416
Average number of shells per batch           ...    54.74 (82.94%)
Average number of basis functions per batch  ...   112.67 (81.64%)
Average number of large shells per batch     ...    44.41 (81.12%)
Average number of large basis fcns per batch ...    91.19 (80.93%)
Maximum spatial batch extension              ...  16.17, 19.97, 25.32 au
Average spatial batch extension              ...   1.84,  1.86,  2.24 au

Overlap Fitting                  UseSFitting ... on
Constructing numerical overlap ... done (      0.0 sec)
Inverting numerical overlap    ... done (      0.0 sec)
Obtaining analytic overlap     ... done (      0.2 sec)
Final contraction and storage  ... done (      0.5 sec)


General Integration Accuracy     IntAcc      ...  3.670
Radial Grid Type                 RadialGrid  ... Gauss-Chebyshev
Angular Grid (max. acc.)         AngularGrid ... Lebedev-50
Angular grid pruning method      GridPruning ... 3 (G Style)
Weight generation scheme         WeightScheme... Becke
Basis function cutoff            BFCut       ...    1.0000e-11
Integration weight cutoff        WCut        ...    1.0000e-14
Grids for H and He will be reduced by one unit

# of grid points (after initial pruning)     ...   8454 (   0.0 sec)
# of grid points (after weights+screening)   ...   7942 (   0.0 sec)
nearest neighbour list constructed           ...    0.0 sec
Grid point re-assignment to atoms done       ...    0.0 sec
Grid point division into batches done        ...    0.0 sec
Reduced shell lists constructed in    0.1 sec

Total number of grid points                  ...     7942
Total number of batches                      ...      132
Average number of points per batch           ...       60
Average number of grid points per atom       ...      529
Average number of shells per batch           ...    53.69 (81.34%)
Average number of basis functions per batch  ...   110.10 (79.79%)
Average number of large shells per batch     ...    43.48 (80.98%)
Average number of large basis fcns per batch ...    89.03 (80.86%)
Maximum spatial batch extension              ...  17.14, 16.73, 21.71 au
Average spatial batch extension              ...   1.85,  1.85,  2.15 au

Overlap Fitting                  UseSFitting ... on
Constructing numerical overlap ... done (      0.0 sec)
Inverting numerical overlap    ... done (      0.0 sec)
Obtaining analytic overlap     ... done (      0.1 sec)
Final contraction and storage  ... done (      0.4 sec)


General Integration Accuracy     IntAcc      ...  4.010
Radial Grid Type                 RadialGrid  ... Gauss-Chebyshev
Angular Grid (max. acc.)         AngularGrid ... Lebedev-110
Angular grid pruning method      GridPruning ... 3 (G Style)
Weight generation scheme         WeightScheme... Becke
Basis function cutoff            BFCut       ...    1.0000e-11
Integration weight cutoff        WCut        ...    1.0000e-14
Grids for H and He will be reduced by one unit

# of grid points (after initial pruning)     ...  15574 (   0.0 sec)
# of grid points (after weights+screening)   ...  14589 (   0.0 sec)
nearest neighbour list constructed           ...    0.0 sec
Grid point re-assignment to atoms done       ...    0.0 sec
Grid point division into batches done        ...    0.0 sec
Reduced shell lists constructed in    0.1 sec

Total number of grid points                  ...    14589
Total number of batches                      ...      235
Average number of points per batch           ...       62
Average number of grid points per atom       ...      973
Average number of shells per batch           ...    52.45 (79.46%)
Average number of basis functions per batch  ...   107.32 (77.77%)
Average number of large shells per batch     ...    42.06 (80.20%)
Average number of large basis fcns per batch ...    86.28 (80.39%)
Maximum spatial batch extension              ...  15.34, 18.82, 20.15 au
Average spatial batch extension              ...   1.53,  1.64,  1.76 au

Overlap Fitting                  UseSFitting ... on
Constructing numerical overlap ... done (      0.1 sec)
Inverting numerical overlap    ... done (      0.0 sec)
Obtaining analytic overlap     ... done (      0.2 sec)
Final contraction and storage  ... done (      0.6 sec)

Time for X-Grid setup             =    7.105 sec
--------------
SCF ITERATIONS
--------------
ITER       Energy         Delta-E        Max-DP      RMS-DP      [F,P]     Damp
               ***  Starting incremental Fock matrix formation  ***
  0   -308.2201624695   0.000000000000 0.09075220  0.00275262  0.2382355 0.7000
  1   -308.3250984986  -0.104936029111 0.05449193  0.00182226  0.0818164 0.7000
                               ***Turning on DIIS***
  2   -308.3636075050  -0.038509006377 0.05649949  0.00271206  0.0351875 0.0000
  3   -308.4270463294  -0.063438824452 0.04581643  0.00133164  0.0417895 0.0000
  4   -308.4399880231  -0.012941693635 0.01262966  0.00040130  0.0257717 0.0000
  5   -308.4414414777  -0.001453454661 0.00330076  0.00011772  0.0051647 0.0000
                      *** Initiating the SOSCF procedure ***
                           *** Shutting down DIIS ***
                      *** Re-Reading the Fockian *** 
                      *** Removing any level shift *** 
ITER      Energy       Delta-E        Grad      Rot      Max-DP    RMS-DP
  6   -308.44150650  -0.0000650228  0.000227  0.000227  0.001796  0.000069
               *** Restarting incremental Fock matrix formation ***
  7   -308.44150851  -0.0000020045  0.000272  0.000972  0.001093  0.000026
  8   -308.44150680   0.0000017057  0.000494  0.000611  0.000698  0.000016
  9   -308.44150932  -0.0000025237  0.000025  0.000042  0.000127  0.000004
 10   -308.44150931   0.0000000155  0.000035  0.000028  0.000071  0.000002
 11   -308.44150935  -0.0000000413  0.000008  0.000021  0.000024  0.000001
 12   -308.44150935   0.0000000035  0.000016  0.000014  0.000017  0.000000
                  ***Gradient check signals convergence***
              ***Rediagonalizing the Fockian in SOSCF/NRSCF***

               *****************************************************
               *                     SUCCESS                       *
               *           SCF CONVERGED AFTER  13 CYCLES          *
               *****************************************************

Setting up the final grid:

General Integration Accuracy     IntAcc      ...  4.670
Radial Grid Type                 RadialGrid  ... Gauss-Chebyshev
Angular Grid (max. acc.)         AngularGrid ... Lebedev-302
Angular grid pruning method      GridPruning ... 3 (G Style)
Weight generation scheme         WeightScheme... Becke
Basis function cutoff            BFCut       ...    1.0000e-11
Integration weight cutoff        WCut        ...    1.0000e-14
Grids for H and He will be reduced by one unit

# of grid points (after initial pruning)     ...  70636 (   0.0 sec)
# of grid points (after weights+screening)   ...  65347 (   0.1 sec)
nearest neighbour list constructed           ...    0.0 sec
Grid point re-assignment to atoms done       ...    0.0 sec
Grid point division into batches done        ...    0.3 sec
Reduced shell lists constructed in    1.0 sec

Total number of grid points                  ...    65347
Total number of batches                      ...     1030
Average number of points per batch           ...       63
Average number of grid points per atom       ...     4356
Average number of shells per batch           ...    48.50 (73.49%)
Average number of basis functions per batch  ...    98.72 (71.53%)
Average number of large shells per batch     ...    37.89 (78.11%)
Average number of large basis fcns per batch ...    77.57 (78.58%)
Maximum spatial batch extension              ...  17.29, 17.61, 20.73 au
Average spatial batch extension              ...   0.99,  1.06,  1.10 au

Final grid set up in    2.1 sec
Final integration                            ... done (   2.2 sec)
Change in XC energy                          ...     0.000777194
Integrated number of electrons               ...    51.999828001
Previous integrated no of electrons          ...    52.003957615
Old exchange energy                            =     -8.422525462 Eh
New exchange energy                            =     -8.421783737 Eh
Exchange energy change after final integration =      0.000741724 Eh
Total energy after final integration           =   -308.439990428 Eh
Final COS-X integration done in                =     2.851 sec

----------------
TOTAL SCF ENERGY
----------------

Total Energy       :         -308.43999043 Eh           -8393.07884 eV

Components:
Nuclear Repulsion  :          263.67766565 Eh            7175.03405 eV
Electronic Energy  :         -572.11765608 Eh          -15568.11289 eV
One Electron Energy:         -938.87943724 Eh          -25548.20833 eV
Two Electron Energy:          366.76178116 Eh            9980.09544 eV

Virial components:
Potential Energy   :         -614.94006918 Eh          -16733.36999 eV
Kinetic Energy     :          306.50007875 Eh            8340.29115 eV
Virial Ratio       :            2.00632924


DFT components:
N(Alpha)           :       25.999914000722 electrons
N(Beta)            :       25.999914000722 electrons
N(Total)           :       51.999828001445 electrons
E(X)               :      -33.440928134976 Eh       
E(C)               :       -2.032564786098 Eh       
E(XC)              :      -35.473492921074 Eh       

---------------
SCF CONVERGENCE
---------------

  Last Energy change         ...   -1.6643e-09  Tolerance :   1.0000e-08
  Last MAX-Density change    ...    1.8100e-13  Tolerance :   1.0000e-07
  Last RMS-Density change    ...    1.9492e-15  Tolerance :   5.0000e-09
  Last Orbital Gradient      ...    5.3151e-07  Tolerance :   1.0000e-05
  Last Orbital Rotation      ...    2.5257e-06  Tolerance :   1.0000e-05

             **** THE GBW FILE WAS UPDATED (frag_12_c00001.gbw) ****
             **** DENSITY FILE WAS UPDATED (frag_12_c00001.scfp.tmp) ****
             **** ENERGY FILE WAS UPDATED (frag_12_c00001.en.tmp) ****
----------------
ORBITAL ENERGIES
----------------

  NO   OCC          E(Eh)            E(eV) 
   0   2.0000     -19.141784      -520.8744 
   1   2.0000     -10.279223      -279.7119 
   2   2.0000     -10.205794      -277.7138 
   3   2.0000     -10.189824      -277.2792 
   4   2.0000     -10.187835      -277.2251 
   5   2.0000     -10.185624      -277.1649 
   6   2.0000     -10.179813      -277.0068 
   7   2.0000      -1.038246       -28.2521 
   8   2.0000      -0.818203       -22.2644 
   9   2.0000      -0.774186       -21.0667 
  10   2.0000      -0.704971       -19.1832 
  11   2.0000      -0.624085       -16.9822 
  12   2.0000      -0.569096       -15.4859 
  13   2.0000      -0.526894       -14.3375 
  14   2.0000      -0.485605       -13.2140 
  15   2.0000      -0.471871       -12.8403 
  16   2.0000      -0.461418       -12.5558 
  17   2.0000      -0.433169       -11.7871 
  18   2.0000      -0.414391       -11.2761 
  19   2.0000      -0.398392       -10.8408 
  20   2.0000      -0.369005       -10.0411 
  21   2.0000      -0.347666        -9.4605 
  22   2.0000      -0.346912        -9.4399 
  23   2.0000      -0.318134        -8.6569 
  24   2.0000      -0.255431        -6.9506 
  25   2.0000      -0.223263        -6.0753 
  26   0.0000      -0.038576        -1.0497 
  27   0.0000      -0.026666        -0.7256 
  28   0.0000       0.060158         1.6370 
  29   0.0000       0.072203         1.9648 
  30   0.0000       0.079605         2.1662 
  31   0.0000       0.096427         2.6239 
  32   0.0000       0.108185         2.9439 
  33   0.0000       0.123542         3.3617 
  34   0.0000       0.135892         3.6978 
  35   0.0000       0.158278         4.3070 
  36   0.0000       0.192609         5.2412 
  37   0.0000       0.213299         5.8042 
  38   0.0000       0.267289         7.2733 
  39   0.0000       0.281057         7.6480 
  40   0.0000       0.300282         8.1711 
  41   0.0000       0.320758         8.7283 
  42   0.0000       0.387055        10.5323 
  43   0.0000       0.419727        11.4214 
  44   0.0000       0.432222        11.7614 
  45   0.0000       0.468436        12.7468 
  46   0.0000       0.473824        12.8934 
  47   0.0000       0.483661        13.1611 
  48   0.0000       0.503447        13.6995 
  49   0.0000       0.509529        13.8650 
  50   0.0000       0.522242        14.2109 
  51   0.0000       0.548449        14.9241 
  52   0.0000       0.552420        15.0321 
  53   0.0000       0.566410        15.4128 
  54   0.0000       0.578596        15.7444 
  55   0.0000       0.589127        16.0310 
  56   0.0000       0.615102        16.7378 
  57   0.0000       0.633531        17.2393 
  58   0.0000       0.638254        17.3678 
  59   0.0000       0.647978        17.6324 
  60   0.0000       0.665641        18.1130 
  61   0.0000       0.673231        18.3195 
  62   0.0000       0.696704        18.9583 
  63   0.0000       0.706429        19.2229 
  64   0.0000       0.737217        20.0607 
  65   0.0000       0.787926        21.4406 
  66   0.0000       0.795391        21.6437 
  67   0.0000       0.855102        23.2685 
  68   0.0000       0.886048        24.1106 
  69   0.0000       0.909989        24.7620 
  70   0.0000       0.925839        25.1934 
  71   0.0000       0.964684        26.2504 
  72   0.0000       0.971774        26.4433 
  73   0.0000       0.980846        26.6902 
  74   0.0000       1.023443        27.8493 
  75   0.0000       1.039447        28.2848 
  76   0.0000       1.047390        28.5009 
  77   0.0000       1.061474        28.8842 
  78   0.0000       1.075182        29.2572 
  79   0.0000       1.115920        30.3657 
  80   0.0000       1.132653        30.8211 
  81   0.0000       1.165699        31.7203 
  82   0.0000       1.237704        33.6796 
  83   0.0000       1.275729        34.7143 
  84   0.0000       1.329868        36.1875 
  85   0.0000       1.393635        37.9227 
  86   0.0000       1.413322        38.4585 
  87   0.0000       1.430526        38.9266 
  88   0.0000       1.455579        39.6083 
  89   0.0000       1.483400        40.3654 
  90   0.0000       1.493368        40.6366 
  91   0.0000       1.512258        41.1506 
  92   0.0000       1.528615        41.5957 
  93   0.0000       1.545066        42.0434 
  94   0.0000       1.552361        42.2419 
  95   0.0000       1.619493        44.0686 
  96   0.0000       1.638545        44.5871 
  97   0.0000       1.640755        44.6472 
  98   0.0000       1.662708        45.2446 
  99   0.0000       1.669398        45.4266 
 100   0.0000       1.675421        45.5905 
 101   0.0000       1.697224        46.1838 
 102   0.0000       1.706255        46.4296 
 103   0.0000       1.718964        46.7754 
 104   0.0000       1.781620        48.4803 
 105   0.0000       1.801322        49.0165 
 106   0.0000       1.823677        49.6248 
 107   0.0000       1.854983        50.4766 
 108   0.0000       1.864128        50.7255 
 109   0.0000       1.886627        51.3377 
 110   0.0000       1.902070        51.7579 
 111   0.0000       1.913525        52.0697 
 112   0.0000       1.960258        53.3413 
 113   0.0000       1.982822        53.9553 
 114   0.0000       1.999125        54.3989 
 115   0.0000       2.103768        57.2464 
 116   0.0000       2.151217        58.5376 
 117   0.0000       2.170343        59.0580 
 118   0.0000       2.190994        59.6200 
 119   0.0000       2.233832        60.7857 
 120   0.0000       2.269908        61.7673 
 121   0.0000       2.294723        62.4426 
 122   0.0000       2.306926        62.7746 
 123   0.0000       2.392212        65.0954 
 124   0.0000       2.429060        66.0981 
 125   0.0000       2.457427        66.8700 
 126   0.0000       2.463160        67.0260 
 127   0.0000       2.555262        69.5322 
 128   0.0000       2.579640        70.1956 
 129   0.0000       2.633802        71.6694 
 130   0.0000       2.708363        73.6983 
 131   0.0000       2.783175        75.7341 
 132   0.0000       2.830744        77.0285 
 133   0.0000       2.862152        77.8831 
 134   0.0000       3.074959        83.6739 
 135   0.0000       3.241531        88.2066 
 136   0.0000       3.333734        90.7155 
 137   0.0000       3.424608        93.1883 

                    ********************************
                    * MULLIKEN POPULATION ANALYSIS *
                    ********************************

-----------------------
MULLIKEN ATOMIC CHARGES
-----------------------
   0 C :    0.040826
   1 C :   -0.038752
   2 C :    0.060176
   3 C :   -0.032231
   4 C :   -0.005595
   5 C :    0.160829
   6 O :   -0.192154
   7 H :    0.012577
   8 H :   -0.024517
   9 H :   -0.035586
  10 H :    0.049736
  11 H :    0.034828
  12 H :   -0.016622
  13 H :    0.010199
  14 H :   -0.023714
Sum of atomic charges:    0.0000000

--------------------------------
MULLIKEN REDUCED ORBITAL CHARGES
--------------------------------
  0 C s       :     3.028080  s :     3.028080
      pz      :     0.998376  p :     2.887474
      px      :     0.965871
      py      :     0.923227
      dz2     :     0.002620  d :     0.043619
      dxz     :     0.005407
      dyz     :     0.004556
      dx2y2   :     0.020467
      dxy     :     0.010571
  1 C s       :     3.105082  s :     3.105082
      pz      :     0.969441  p :     2.865186
      px      :     0.981840
      py      :     0.913905
      dz2     :     0.005211  d :     0.068485
      dxz     :     0.013894
      dyz     :     0.004783
      dx2y2   :     0.027556
      dxy     :     0.017040
  2 C s       :     3.107779  s :     3.107779
      pz      :     0.964292  p :     2.766064
      px      :     0.905678
      py      :     0.896095
      dz2     :     0.003409  d :     0.065981
      dxz     :     0.009355
      dyz     :     0.009868
      dx2y2   :     0.018403
      dxy     :     0.024945
  3 C s       :     3.135185  s :     3.135185
      pz      :     0.979614  p :     2.833272
      px      :     0.899228
      py      :     0.954430
      dz2     :     0.003757  d :     0.063774
      dxz     :     0.008914
      dyz     :     0.009166
      dx2y2   :     0.018247
      dxy     :     0.023689
  4 C s       :     3.016971  s :     3.016971
      pz      :     0.985754  p :     2.925361
      px      :     0.957817
      py      :     0.981790
      dz2     :     0.012427  d :     0.063263
      dxz     :     0.016052
      dyz     :     0.004219
      dx2y2   :     0.017881
      dxy     :     0.012684
  5 C s       :     3.125037  s :     3.125037
      pz      :     0.826724  p :     2.571867
      px      :     0.929244
      py      :     0.815899
      dz2     :     0.031706  d :     0.142268
      dxz     :     0.031277
      dyz     :     0.021676
      dx2y2   :     0.024911
      dxy     :     0.032697
  6 O s       :     3.760966  s :     3.760966
      pz      :     1.328728  p :     4.413295
      px      :     1.777709
      py      :     1.306858
      dz2     :     0.004536  d :     0.017893
      dxz     :     0.002225
      dyz     :     0.005936
      dx2y2   :     0.003051
      dxy     :     0.002145
  7 H s       :     0.957234  s :     0.957234
      pz      :     0.006444  p :     0.030189
      px      :     0.016471
      py      :     0.007275
  8 H s       :     0.996033  s :     0.996033
      pz      :     0.006096  p :     0.028484
      px      :     0.004968
      py      :     0.017420
  9 H s       :     1.006797  s :     1.006797
      pz      :     0.007109  p :     0.028789
      px      :     0.009510
      py      :     0.012171
 10 H s       :     0.920963  s :     0.920963
      pz      :     0.017116  p :     0.029302
      px      :     0.005366
      py      :     0.006819
 11 H s       :     0.936315  s :     0.936315
      pz      :     0.006356  p :     0.028857
      px      :     0.004891
      py      :     0.017610
 12 H s       :     0.990954  s :     0.990954
      pz      :     0.003436  p :     0.025667
      px      :     0.018063
      py      :     0.004168
 13 H s       :     0.959609  s :     0.959609
      pz      :     0.006513  p :     0.030192
      px      :     0.005732
      py      :     0.017947
 14 H s       :     0.994419  s :     0.994419
      pz      :     0.007801  p :     0.029294
      px      :     0.008943
      py      :     0.012551


                     *******************************
                     * LOEWDIN POPULATION ANALYSIS *
                     *******************************

----------------------
LOEWDIN ATOMIC CHARGES
----------------------
   0 C :   -0.035373
   1 C :   -0.039028
   2 C :   -0.030324
   3 C :   -0.015285
   4 C :   -0.076874
   5 C :   -0.005485
   6 O :   -0.012263
   7 H :    0.025019
   8 H :    0.029934
   9 H :    0.026767
  10 H :    0.051886
  11 H :    0.048084
  12 H :   -0.006084
  13 H :    0.018221
  14 H :    0.020805

-------------------------------
LOEWDIN REDUCED ORBITAL CHARGES
-------------------------------
  0 C s       :     2.839253  s :     2.839253
      pz      :     0.970368  p :     3.051996
      px      :     1.043019
      py      :     1.038609
      dz2     :     0.011944  d :     0.144124
      dxz     :     0.015710
      dyz     :     0.013658
      dx2y2   :     0.063768
      dxy     :     0.039045
  1 C s       :     2.817645  s :     2.817645
      pz      :     0.944958  p :     3.012897
      px      :     1.040384
      py      :     1.027556
      dz2     :     0.017100  d :     0.208485
      dxz     :     0.038520
      dyz     :     0.013880
      dx2y2   :     0.083650
      dxy     :     0.055335
  2 C s       :     2.816083  s :     2.816083
      pz      :     0.947108  p :     3.008955
      px      :     1.012178
      py      :     1.049668
      dz2     :     0.013290  d :     0.205286
      dxz     :     0.024895
      dyz     :     0.027255
      dx2y2   :     0.059520
      dxy     :     0.080326
  3 C s       :     2.823567  s :     2.823567
      pz      :     0.953718  p :     2.999897
      px      :     0.986886
      py      :     1.059293
      dz2     :     0.013138  d :     0.191821
      dxz     :     0.021680
      dyz     :     0.026061
      dx2y2   :     0.059192
      dxy     :     0.071750
  4 C s       :     2.800028  s :     2.800028
      pz      :     1.035878  p :     3.088682
      px      :     1.020821
      py      :     1.031984
      dz2     :     0.041430  d :     0.188164
      dxz     :     0.045664
      dyz     :     0.013317
      dx2y2   :     0.054238
      dxy     :     0.033514
  5 C s       :     2.881491  s :     2.881491
      pz      :     0.875788  p :     2.756806
      px      :     1.016363
      py      :     0.864655
      dz2     :     0.067319  d :     0.367188
      dxz     :     0.086784
      dyz     :     0.064755
      dx2y2   :     0.059028
      dxy     :     0.089302
  6 O s       :     3.511450  s :     3.511450
      pz      :     1.371137  p :     4.470299
      px      :     1.747709
      py      :     1.351452
      dz2     :     0.005655  d :     0.030514
      dxz     :     0.003865
      dyz     :     0.012348
      dx2y2   :     0.004774
      dxy     :     0.003873
  7 H s       :     0.892104  s :     0.892104
      pz      :     0.019510  p :     0.082877
      px      :     0.041932
      py      :     0.021435
  8 H s       :     0.891603  s :     0.891603
      pz      :     0.017830  p :     0.078463
      px      :     0.015946
      py      :     0.044687
  9 H s       :     0.894120  s :     0.894120
      pz      :     0.020395  p :     0.079113
      px      :     0.026827
      py      :     0.031890
 10 H s       :     0.866917  s :     0.866917
      pz      :     0.045106  p :     0.081197
      px      :     0.017843
      py      :     0.018248
 11 H s       :     0.872237  s :     0.872237
      pz      :     0.017392  p :     0.079679
      px      :     0.016357
      py      :     0.045931
 12 H s       :     0.928272  s :     0.928272
      pz      :     0.012029  p :     0.077811
      px      :     0.051570
      py      :     0.014212
 13 H s       :     0.897882  s :     0.897882
      pz      :     0.019710  p :     0.083897
      px      :     0.016923
      py      :     0.047265
 14 H s       :     0.895987  s :     0.895987
      pz      :     0.022478  p :     0.083208
      px      :     0.027923
      py      :     0.032807


                      *****************************
                      * MAYER POPULATION ANALYSIS *
                      *****************************

  NA   - Mulliken gross atomic population
  ZA   - Total nuclear charge
  QA   - Mulliken gross atomic charge
  VA   - Mayer's total valence
  BVA  - Mayer's bonded valence
  FA   - Mayer's free valence

  ATOM       NA         ZA         QA         VA         BVA        FA
  0 C      5.9592     6.0000     0.0408     3.9691     3.9691     0.0000
  1 C      6.0388     6.0000    -0.0388     4.2197     4.2197     0.0000
  2 C      5.9398     6.0000     0.0602     4.0588     4.0588    -0.0000
  3 C      6.0322     6.0000    -0.0322     4.0325     4.0325    -0.0000
  4 C      6.0056     6.0000    -0.0056     3.9108     3.9108    -0.0000
  5 C      5.8392     6.0000     0.1608     4.1845     4.1845    -0.0000
  6 O      8.1922     8.0000    -0.1922     2.3288     2.3288     0.0000
  7 H      0.9874     1.0000     0.0126     0.9683     0.9683     0.0000
  8 H      1.0245     1.0000    -0.0245     0.9658     0.9658    -0.0000
  9 H      1.0356     1.0000    -0.0356     0.9788     0.9788    -0.0000
 10 H      0.9503     1.0000     0.0497     0.9730     0.9730    -0.0000
 11 H      0.9652     1.0000     0.0348     0.9714     0.9714    -0.0000
 12 H      1.0166     1.0000    -0.0166     0.9640     0.9640    -0.0000
 13 H      0.9898     1.0000     0.0102     0.9757     0.9757    -0.0000
 14 H      1.0237     1.0000    -0.0237     0.9865     0.9865    -0.0000

  Mayer bond orders larger than 0.1
B(  0-C ,  1-C ) :   1.9869 B(  0-C ,  3-C ) :   0.1088 B(  0-C ,  7-H ) :   0.9273 
B(  0-C , 13-H ) :   0.9293 B(  1-C ,  2-C ) :   1.1879 B(  1-C ,  8-H ) :   0.9311 
B(  2-C ,  3-C ) :   1.8639 B(  2-C ,  9-H ) :   0.9333 B(  3-C ,  4-C ) :   1.0767 
B(  3-C , 14-H ) :   0.9344 B(  4-C ,  5-C ) :   0.9884 B(  4-C , 10-H ) :   0.9157 
B(  4-C , 11-H ) :   0.9216 B(  5-C ,  6-O ) :   2.2263 B(  5-C , 12-H ) :   0.9189 


-------
TIMINGS
-------

Total SCF time: 0 days 0 hours 2 min 4 sec 

Total time                  ....     124.291 sec
Sum of individual times     ....     103.758 sec  ( 83.5%)

Fock matrix formation       ....      88.659 sec  ( 71.3%)
  Split-RI-J                ....      10.401 sec  ( 11.7% of F)
  Chain of spheres X        ....      23.363 sec  ( 26.4% of F)
  COS-X 1 center corr.      ....       0.000 sec  (  0.0% of F)
  XC integration            ....      23.045 sec  ( 26.0% of F)
    Basis function eval.    ....       1.126 sec  (  4.9% of XC)
    Density eval.           ....       0.559 sec  (  2.4% of XC)
    XC-Functional eval.     ....       0.186 sec  (  0.8% of XC)
    XC-Potential eval.      ....       0.882 sec  (  3.8% of XC)
Diagonalization             ....       0.899 sec  (  0.7%)
Density matrix formation    ....       0.040 sec  (  0.0%)
Population analysis         ....       0.667 sec  (  0.5%)
Initial guess               ....       0.865 sec  (  0.7%)
Orbital Transformation      ....       0.000 sec  (  0.0%)
Orbital Orthonormalization  ....       0.000 sec  (  0.0%)
DIIS solution               ....       1.147 sec  (  0.9%)
SOSCF solution              ....       0.969 sec  (  0.8%)
Grid generation             ....      10.513 sec  (  8.5%)

-------------------------   --------------------
FINAL SINGLE POINT ENERGY      -308.439990428045
-------------------------   --------------------



           ************************************************************
           *        Program running with 2 parallel MPI-processes     *
           *              working on a common directory               *
           ************************************************************
------------------------------------------------------------------------------
                         ORCA SCF GRADIENT CALCULATION
------------------------------------------------------------------------------

Gradient of the Kohn-Sham DFT energy:
Kohn-Sham wavefunction type      ... RKS
Hartree-Fock exchange scaling    ...    0.200
Number of operators              ...    1
Number of atoms                  ...   15
Basis set dimensions             ...  138
Integral neglect threshold       ... 2.5e-11
Integral primitive cutoff        ... 2.5e-12

Nuclear repulsion gradient       ... done
One Electron Gradient            ... done
Pre-screening matrix             ... done
RI-J gradient                    ... done
COSX-gradient                    ... done
Exchange-correlation gradient    ... done

------------------
CARTESIAN GRADIENT
------------------

   1   C   :   -0.004031531    0.004371276   -0.000655822
   2   C   :   -0.007709285    0.001898142    0.003139515
   3   C   :    0.009172692   -0.003821241   -0.001226021
   4   C   :    0.001407214    0.003525862   -0.003631898
   5   C   :   -0.007169604    0.004707932    0.011235981
   6   C   :   -0.008964738    0.024108544    0.020844961
   7   O   :    0.003432270   -0.020878063   -0.021341889
   8   H   :   -0.004711476    0.001277674    0.000838104
   9   H   :   -0.002075261    0.003754171   -0.000827030
  10   H   :    0.004409502    0.000791572   -0.001620548
  11   H   :    0.006347305    0.000473155   -0.006575498
  12   H   :    0.005085361   -0.005753879   -0.002390005
  13   H   :    0.009178342   -0.004548628   -0.002572464
  14   H   :    0.001157070   -0.006705036    0.001231701
  15   H   :   -0.004840719   -0.002831772    0.002725396

Difference to translation invariance:
           :    0.0006871417    0.0003697082   -0.0008255151

Norm of the cartesian gradient     ...    0.0533721048
RMS gradient                       ...    0.0079562436
MAX gradient                       ...    0.0241085442

-------
TIMINGS
-------

Total SCF gradient time            ...        9.479 sec

One electron gradient       ....       0.121 sec  (  1.3%)
Prescreening matrices       ....       0.148 sec  (  1.6%)
RI-J Coulomb gradient       ....       1.270 sec  ( 13.4%)
COSX gradient               ....       2.957 sec  ( 31.2%)
XC gradient                 ....       2.208 sec  ( 23.3%)
------------------------------------------------------------------------------
                         ORCA GEOMETRY RELAXATION STEP
------------------------------------------------------------------------------

Reading the OPT-File                    .... done
Getting information on internals        .... done
Copying old internal coords+grads       .... done
Making the new internal coordinates     .... (new redundants).... done
Validating the new internal coordinates .... (new redundants).... done
Calculating the B-matrix                .... done
Calculating the G,G- and P matrices     .... done
Transforming gradient to internals      .... done
Projecting the internal gradient        .... done
Number of atoms                         ....  15
Number of internal coordinates          ....  59
Current Energy                          ....  -308.439990428 Eh
Current gradient norm                   ....     0.053372105 Eh/bohr
Maximum allowed component of the step   ....  0.300
Current trust radius                    ....  0.300
Evaluating the initial hessian          ....  (Almloef) done
Projecting the Hessian                  .... done
Forming the augmented Hessian           .... done
Diagonalizing the augmented Hessian     .... done
Last element of RFO vector              ....  0.993746133
Lowest eigenvalues of augmented Hessian:
 -0.003493538  0.011203533  0.011231975  0.012852717  0.017535915
Length of the computed step             ....  0.112365705
The final length of the internal step   ....  0.112365705
Converting the step to cartesian space:
 Initial RMS(Int)=    0.0146287688
Transforming coordinates:
 Iter   0:  RMS(Cart)=    0.0328549142 RMS(Int)=    1.4142858173
 Iter   1:  RMS(Cart)=    0.0002083257 RMS(Int)=    0.0001495111
 Iter   2:  RMS(Cart)=    0.0000030328 RMS(Int)=    0.0000024858
 Iter   3:  RMS(Cart)=    0.0000000743 RMS(Int)=    0.0000000608
done
Storing new coordinates                 .... done

                                .--------------------.
          ----------------------|Geometry convergence|-------------------------
          Item                value                   Tolerance       Converged
          ---------------------------------------------------------------------
          RMS gradient        0.0056299034            0.0020000000      NO
          MAX gradient        0.0299040247            0.0030000000      NO
          RMS step            0.0146287688            0.0200000000      YES
          MAX step            0.0464058130            0.0300000000      NO
          ........................................................
          Max(Bonds)      0.0192      Max(Angles)    1.19
          Max(Dihed)        2.66      Max(Improp)    0.00
          ---------------------------------------------------------------------

The optimization has not yet converged - more geometry cycles are needed


    ---------------------------------------------------------------------------
                         Redundant Internal Coordinates
                            (Angstroem and degrees)

        Definition                    Value    dE/dq     Step     New-Value
    ----------------------------------------------------------------------------
     1. B(C   1,C   0)                1.3386 -0.007145  0.0050    1.3436   
     2. B(C   2,C   1)                1.4467 -0.018556  0.0192    1.4660   
     3. B(C   3,C   2)                1.3427 -0.002364  0.0017    1.3444   
     4. B(C   4,C   3)                1.5003 -0.007840  0.0099    1.5101   
     5. B(C   5,C   4)                1.5198 -0.000267  0.0004    1.5202   
     6. B(O   6,C   5)                1.2265  0.029904 -0.0155    1.2111   
     7. B(H   7,C   0)                1.0857 -0.004917  0.0070    1.0927   
     8. B(H   8,C   1)                1.0897 -0.004089  0.0059    1.0957   
     9. B(H   9,C   2)                1.0902 -0.003627  0.0053    1.0955   
    10. B(H  10,C   4)                1.0956 -0.007626  0.0113    1.1069   
    11. B(H  11,C   4)                1.0960 -0.005998  0.0089    1.1049   
    12. B(H  12,C   5)                1.1042 -0.010355  0.0159    1.1200   
    13. B(H  13,C   0)                1.0835 -0.007026  0.0100    1.0935   
    14. B(H  14,C   3)                1.0860 -0.005844  0.0084    1.0944   
    15. A(C   1,C   0,H  13)          122.99  0.001107   -0.17    122.82   
    16. A(C   1,C   0,H   7)          120.16 -0.001448    0.23    120.39   
    17. A(H   7,C   0,H  13)          116.85  0.000341   -0.06    116.79   
    18. A(C   0,C   1,H   8)          118.16  0.003123   -0.45    117.71   
    19. A(C   0,C   1,C   2)          127.13 -0.003428    0.48    127.61   
    20. A(C   2,C   1,H   8)          114.70  0.000302   -0.02    114.69   
    21. A(C   1,C   2,H   9)          114.23 -0.001951    0.34    114.56   
    22. A(C   1,C   2,C   3)          126.88 -0.002069    0.28    127.16   
    23. A(C   3,C   2,H   9)          118.89  0.004020   -0.62    118.27   
    24. A(C   2,C   3,C   4)          124.04 -0.001082    0.15    124.18   
    25. A(C   4,C   3,H  14)          115.57 -0.001706    0.30    115.87   
    26. A(C   2,C   3,H  14)          120.38  0.002781   -0.43    119.95   
    27. A(H  10,C   4,H  11)          107.22  0.001692   -1.04    106.17   
    28. A(C   5,C   4,H  11)          106.98  0.002854   -0.45    106.53   
    29. A(C   3,C   4,H  11)          108.92 -0.002203    0.93    109.85   
    30. A(C   5,C   4,H  10)          108.00  0.004909   -1.19    106.81   
    31. A(C   3,C   4,H  10)          110.13 -0.002309    0.62    110.75   
    32. A(C   3,C   4,C   5)          115.27 -0.004379    0.95    116.23   
    33. A(C   4,C   5,O   6)          126.05  0.001950   -0.26    125.79   
    34. A(O   6,C   5,H  12)          119.78 -0.002551    0.38    120.16   
    35. A(C   4,C   5,H  12)          114.17  0.000597   -0.11    114.06   
    36. D(C   2,C   1,C   0,H   7)   -179.63  0.000330   -0.55   -180.18   
    37. D(C   2,C   1,C   0,H  13)      0.02  0.000245   -0.44     -0.42   
    38. D(H   8,C   1,C   0,H  13)    179.55 -0.000326    0.54    180.09   
    39. D(H   8,C   1,C   0,H   7)     -0.10 -0.000240    0.43      0.33   
    40. D(H   9,C   2,C   1,C   0)    179.89 -0.000446    0.90    180.80   
    41. D(C   3,C   2,C   1,H   8)   -179.69  0.000203   -0.24   -179.93   
    42. D(H   9,C   2,C   1,H   8)      0.35  0.000095   -0.05      0.30   
    43. D(C   3,C   2,C   1,C   0)     -0.15 -0.000339    0.71      0.56   
    44. D(H  14,C   3,C   2,H   9)   -179.38 -0.000138    0.31   -179.07   
    45. D(H  14,C   3,C   2,C   1)      0.67 -0.000248    0.51      1.18   
    46. D(C   4,C   3,C   2,H   9)      1.79  0.000350   -0.65      1.15   
    47. D(C   4,C   3,C   2,C   1)   -178.16  0.000241   -0.45   -178.61   
    48. D(H  10,C   4,C   3,C   2)     56.97  0.000600   -0.00     56.97   
    49. D(C   5,C   4,C   3,H  14)    115.61 -0.000449   -0.52    115.09   
    50. D(C   5,C   4,C   3,C   2)    -65.51 -0.000869    0.39    -65.12   
    51. D(H  11,C   4,C   3,H  14)     -4.60  0.000441   -1.27     -5.87   
    52. D(H  11,C   4,C   3,C   2)    174.28  0.000022   -0.36    173.92   
    53. D(H  10,C   4,C   3,H  14)   -121.91  0.001019   -0.91   -122.82   
    54. D(H  12,C   5,C   4,H  11)    -54.80 -0.003494    2.66    -52.14   
    55. D(H  12,C   5,C   4,H  10)     60.33  0.002305    0.64     60.96   
    56. D(H  12,C   5,C   4,C   3)   -176.06  0.000039    1.19   -174.87   
    57. D(O   6,C   5,C   4,H  11)    125.98 -0.003186    1.46    127.44   
    58. D(O   6,C   5,C   4,H  10)   -118.90  0.002613   -0.56   -119.46   
    59. D(O   6,C   5,C   4,C   3)      4.71  0.000346   -0.01      4.70   
    ----------------------------------------------------------------------------

         *************************************************************
         *                GEOMETRY OPTIMIZATION CYCLE   2            *
         *************************************************************
---------------------------------
CARTESIAN COORDINATES (ANGSTROEM)
---------------------------------
  C      2.724783   -0.473500   -0.173582
  C      1.710953   -1.242722    0.257207
  C      0.325025   -0.837195    0.509727
  C     -0.205008    0.387697    0.348163
  C     -1.640628    0.738632    0.658513
  C     -2.698011    0.061276   -0.198248
  O     -2.492034   -0.783722   -1.040997
  H      3.719568   -0.901270   -0.320207
  H      1.922384   -2.299028    0.457349
  H     -0.325645   -1.640451    0.872319
  H     -1.883163    0.502326    1.712390
  H     -1.793838    1.826910    0.544301
  H     -3.742079    0.414413    0.001016
  H      2.607926    0.590490   -0.397061
  H      0.416267    1.206745   -0.027090

----------------------------
CARTESIAN COORDINATES (A.U.)
----------------------------
  NO LB      ZA    FRAG     MASS         X           Y           Z
   0 C     6.0000    0    12.011    5.149094   -0.894785   -0.328023
   1 C     6.0000    0    12.011    3.233234   -2.348405    0.486051
   2 C     6.0000    0    12.011    0.614208   -1.582069    0.963245
   3 C     6.0000    0    12.011   -0.387409    0.732641    0.657933
   4 C     6.0000    0    12.011   -3.100339    1.395813    1.244410
   5 C     6.0000    0    12.011   -5.098501    0.115794   -0.374635
   6 O     8.0000    0    15.999   -4.709262   -1.481020   -1.967200
   7 H     1.0000    0     1.008    7.028964   -1.703154   -0.605104
   8 H     1.0000    0     1.008    3.632779   -4.344534    0.864265
   9 H     1.0000    0     1.008   -0.615380   -3.100003    1.648443
  10 H     1.0000    0     1.008   -3.558663    0.949258    3.235949
  11 H     1.0000    0     1.008   -3.389862    3.452359    1.028579
  12 H     1.0000    0     1.008   -7.071504    0.783126    0.001921
  13 H     1.0000    0     1.008    4.928267    1.115864   -0.750337
  14 H     1.0000    0     1.008    0.786631    2.280418   -0.051192

--------------------------------
INTERNAL COORDINATES (ANGSTROEM)
--------------------------------
 C      0   0   0     0.000000000000     0.00000000     0.00000000
 C      1   0   0     1.343552697407     0.00000000     0.00000000
 C      2   1   0     1.465952672768   127.60755169     0.00000000
 C      3   2   1     1.344395067116   127.16208220     0.56526939
 C      4   3   2     1.510125492569   124.18286789   181.38970333
 C      5   4   3     1.520167634251   116.22377852   294.88482276
 O      6   5   4     1.211062644873   125.78795673     4.69975569
 H      1   2   3     1.092740798557   120.38732586   179.82328449
 H      2   1   3     1.095692369121   117.70420740   180.50830428
 H      3   2   1     1.095474375019   114.56433235   180.79738147
 H      5   4   3     1.106942293910   110.75329429    56.97352328
 H      5   4   3     1.104927748253   109.84411615   173.91891010
 H      6   5   4     1.120040500300   114.05626477   185.12341348
 H      1   2   3     1.093467715002   122.81871206   359.58482498
 H      4   3   2     1.094366322092   119.95264250     1.17275629

---------------------------
INTERNAL COORDINATES (A.U.)
---------------------------
 C      0   0   0     0.000000000000     0.00000000     0.00000000
 C      1   0   0     2.538946644591     0.00000000     0.00000000
 C      2   1   0     2.770249076821   127.60755169     0.00000000
 C      3   2   1     2.540538492645   127.16208220     0.56526939
 C      4   3   2     2.853723608808   124.18286789   181.38970333
 C      5   4   3     2.872700506386   116.22377852   294.88482276
 O      6   5   4     2.288576729832   125.78795673     4.69975569
 H      1   2   3     2.064980844634   120.38732586   179.82328449
 H      2   1   3     2.070558504666   117.70420740   180.50830428
 H      3   2   1     2.070146555515   114.56433235   180.79738147
 H      5   4   3     2.091817781544   110.75329429    56.97352328
 H      5   4   3     2.088010841969   109.84411615   173.91891010
 H      6   5   4     2.116569804468   114.05626477   185.12341348
 H      1   2   3     2.066354517638   122.81871206   359.58482498
 H      4   3   2     2.068052638940   119.95264250     1.17275629



           ************************************************************
           *        Program running with 2 parallel MPI-processes     *
           *              working on a common directory               *
           ************************************************************
 One Electron integrals                  ... done
 Pre-screening matrix                    ... done


           ************************************************************
           *        Program running with 2 parallel MPI-processes     *
           *              working on a common directory               *
           ************************************************************

Diagonalization of the overlap matrix:
Smallest eigenvalue                        ... 1.375e-03
Time for diagonalization                   ...    0.008 sec
Threshold for overlap eigenvalues          ... 1.000e-08
Number of eigenvalues below threshold      ... 0
Time for construction of square roots      ...    0.501 sec
Total time needed                          ...    0.509 sec

-------------------
DFT GRID GENERATION
-------------------

General Integration Accuracy     IntAcc      ...  4.340
Radial Grid Type                 RadialGrid  ... Gauss-Chebyshev
Angular Grid (max. acc.)         AngularGrid ... Lebedev-110
Angular grid pruning method      GridPruning ... 3 (G Style)
Weight generation scheme         WeightScheme... Becke
Basis function cutoff            BFCut       ...    1.0000e-11
Integration weight cutoff        WCut        ...    1.0000e-14
Grids for H and He will be reduced by one unit

# of grid points (after initial pruning)     ...  18004 (   0.0 sec)
# of grid points (after weights+screening)   ...  16843 (   0.0 sec)
nearest neighbour list constructed           ...    0.0 sec
Grid point re-assignment to atoms done       ...    0.0 sec
Grid point division into batches done        ...    0.0 sec
Reduced shell lists constructed in    0.1 sec

Total number of grid points                  ...    16843
Total number of batches                      ...      272
Average number of points per batch           ...       61
Average number of grid points per atom       ...     1123
Average number of shells per batch           ...    51.83 (78.53%)
Average number of basis functions per batch  ...   106.21 (76.96%)
Average number of large shells per batch     ...    41.50 (80.06%)
Average number of large basis fcns per batch ...    85.03 (80.06%)
Maximum spatial batch extension              ...  15.02, 19.96, 21.59 au
Average spatial batch extension              ...   1.47,  1.53,  1.70 au

Time for grid setup =    0.954 sec

--------------------
COSX GRID GENERATION
--------------------

General Integration Accuracy     IntAcc      ...  3.340
Radial Grid Type                 RadialGrid  ... Gauss-Chebyshev
Angular Grid (max. acc.)         AngularGrid ... Lebedev-50
Angular grid pruning method      GridPruning ... 3 (G Style)
Weight generation scheme         WeightScheme... Becke
Basis function cutoff            BFCut       ...    1.0000e-11
Integration weight cutoff        WCut        ...    1.0000e-14
Grids for H and He will be reduced by one unit

# of grid points (after initial pruning)     ...   6620 (   0.0 sec)
# of grid points (after weights+screening)   ...   6240 (   0.0 sec)
nearest neighbour list constructed           ...    0.0 sec
Grid point re-assignment to atoms done       ...    0.0 sec
Grid point division into batches done        ...    0.0 sec
Reduced shell lists constructed in    0.0 sec

Total number of grid points                  ...     6240
Total number of batches                      ...      106
Average number of points per batch           ...       58
Average number of grid points per atom       ...      416
Average number of shells per batch           ...    54.28 (82.24%)
Average number of basis functions per batch  ...   111.57 (80.85%)
Average number of large shells per batch     ...    44.09 (81.24%)
Average number of large basis fcns per batch ...    90.46 (81.08%)
Maximum spatial batch extension              ...  16.22, 19.96, 25.32 au
Average spatial batch extension              ...   1.90,  1.88,  2.41 au

Overlap Fitting                  UseSFitting ... on
Constructing numerical overlap ... done (      0.0 sec)
Inverting numerical overlap    ... done (      0.0 sec)
Obtaining analytic overlap     ... done (      0.1 sec)
Final contraction and storage  ... done (      0.6 sec)


General Integration Accuracy     IntAcc      ...  3.670
Radial Grid Type                 RadialGrid  ... Gauss-Chebyshev
Angular Grid (max. acc.)         AngularGrid ... Lebedev-50
Angular grid pruning method      GridPruning ... 3 (G Style)
Weight generation scheme         WeightScheme... Becke
Basis function cutoff            BFCut       ...    1.0000e-11
Integration weight cutoff        WCut        ...    1.0000e-14
Grids for H and He will be reduced by one unit

# of grid points (after initial pruning)     ...   8454 (   0.0 sec)
# of grid points (after weights+screening)   ...   7947 (   0.0 sec)
nearest neighbour list constructed           ...    0.0 sec
Grid point re-assignment to atoms done       ...    0.0 sec
Grid point division into batches done        ...    0.0 sec
Reduced shell lists constructed in    0.1 sec

Total number of grid points                  ...     7947
Total number of batches                      ...      132
Average number of points per batch           ...       60
Average number of grid points per atom       ...      530
Average number of shells per batch           ...    53.43 (80.96%)
Average number of basis functions per batch  ...   109.70 (79.49%)
Average number of large shells per batch     ...    43.15 (80.75%)
Average number of large basis fcns per batch ...    88.40 (80.59%)
Maximum spatial batch extension              ...  17.20, 16.73, 19.98 au
Average spatial batch extension              ...   1.86,  1.85,  2.17 au

Overlap Fitting                  UseSFitting ... on
Constructing numerical overlap ... done (      0.0 sec)
Inverting numerical overlap    ... done (      0.0 sec)
Obtaining analytic overlap     ... done (      0.1 sec)
Final contraction and storage  ... done (      0.2 sec)


General Integration Accuracy     IntAcc      ...  4.010
Radial Grid Type                 RadialGrid  ... Gauss-Chebyshev
Angular Grid (max. acc.)         AngularGrid ... Lebedev-110
Angular grid pruning method      GridPruning ... 3 (G Style)
Weight generation scheme         WeightScheme... Becke
Basis function cutoff            BFCut       ...    1.0000e-11
Integration weight cutoff        WCut        ...    1.0000e-14
Grids for H and He will be reduced by one unit

# of grid points (after initial pruning)     ...  15574 (   0.2 sec)
# of grid points (after weights+screening)   ...  14604 (   0.0 sec)
nearest neighbour list constructed           ...    0.0 sec
Grid point re-assignment to atoms done       ...    0.0 sec
Grid point division into batches done        ...    0.0 sec
Reduced shell lists constructed in    0.1 sec

Total number of grid points                  ...    14604
Total number of batches                      ...      237
Average number of points per batch           ...       61
[...]

  NO   OCC          E(Eh)            E(eV) 
   0   2.0000     -19.142265      -520.8875 
   1   2.0000     -10.279661      -279.7238 
   2   2.0000     -10.207964      -277.7728 
   3   2.0000     -10.193436      -277.3775 
   4   2.0000     -10.192640      -277.3558 
   5   2.0000     -10.190394      -277.2947 
   6   2.0000     -10.183890      -277.1177 
   7   2.0000      -1.049947       -28.5705 
   8   2.0000      -0.815247       -22.1840 
   9   2.0000      -0.771375       -20.9902 
  10   2.0000      -0.706122       -19.2146 
  11   2.0000      -0.620666       -16.8892 
  12   2.0000      -0.564776       -15.3683 
  13   2.0000      -0.526263       -14.3204 
  14   2.0000      -0.484837       -13.1931 
  15   2.0000      -0.470849       -12.8125 
  16   2.0000      -0.458325       -12.4717 
  17   2.0000      -0.434612       -11.8264 
  18   2.0000      -0.415762       -11.3135 
  19   2.0000      -0.401371       -10.9219 
  20   2.0000      -0.371473       -10.1083 
  21   2.0000      -0.348769        -9.4905 
  22   2.0000      -0.346997        -9.4423 
  23   2.0000      -0.316741        -8.6190 
  24   2.0000      -0.256371        -6.9762 
  25   2.0000      -0.225462        -6.1351 
  26   0.0000      -0.039106        -1.0641 
  27   0.0000      -0.020498        -0.5578 
  28   0.0000       0.058371         1.5883 
  29   0.0000       0.070323         1.9136 
  30   0.0000       0.077362         2.1051 
  31   0.0000       0.092636         2.5208 
  32   0.0000       0.106621         2.9013 
  33   0.0000       0.121438         3.3045 
  34   0.0000       0.133304         3.6274 
  35   0.0000       0.154565         4.2059 
  36   0.0000       0.187397         5.0993 
  37   0.0000       0.214679         5.8417 
  38   0.0000       0.269380         7.3302 
  39   0.0000       0.278257         7.5718 
  40   0.0000       0.296840         8.0774 
  41   0.0000       0.314459         8.5569 
  42   0.0000       0.385593        10.4925 
  43   0.0000       0.416781        11.3412 
  44   0.0000       0.423208        11.5161 
  45   0.0000       0.467713        12.7271 
  46   0.0000       0.471323        12.8254 
  47   0.0000       0.480020        13.0620 
  48   0.0000       0.497157        13.5283 
  49   0.0000       0.504024        13.7152 
  50   0.0000       0.520853        14.1731 
  51   0.0000       0.547064        14.8864 
  52   0.0000       0.550846        14.9893 
  53   0.0000       0.562664        15.3109 
  54   0.0000       0.577570        15.7165 
  55   0.0000       0.591707        16.1012 
  56   0.0000       0.613241        16.6871 
  57   0.0000       0.635664        17.2973 
  58   0.0000       0.638873        17.3846 
  59   0.0000       0.644235        17.5305 
  60   0.0000       0.663778        18.0623 
  61   0.0000       0.673820        18.3356 
  62   0.0000       0.692714        18.8497 
  63   0.0000       0.706183        19.2162 
  64   0.0000       0.737623        20.0717 
  65   0.0000       0.784229        21.3400 
  66   0.0000       0.788868        21.4662 
  67   0.0000       0.848311        23.0837 
  68   0.0000       0.882431        24.0122 
  69   0.0000       0.897647        24.4262 
  70   0.0000       0.921502        25.0753 
  71   0.0000       0.963290        26.2124 
  72   0.0000       0.969730        26.3877 
  73   0.0000       0.982979        26.7482 
  74   0.0000       1.016895        27.6711 
  75   0.0000       1.030686        28.0464 
  76   0.0000       1.048213        28.5233 
  77   0.0000       1.056007        28.7354 
  78   0.0000       1.075465        29.2649 
  79   0.0000       1.105852        30.0918 
  80   0.0000       1.132625        30.8203 
  81   0.0000       1.161599        31.6087 
  82   0.0000       1.218642        33.1609 
  83   0.0000       1.260554        34.3014 
  84   0.0000       1.327838        36.1323 
  85   0.0000       1.401858        38.1465 
  86   0.0000       1.407124        38.2898 
  87   0.0000       1.421788        38.6888 
  88   0.0000       1.455941        39.6182 
  89   0.0000       1.479957        40.2717 
  90   0.0000       1.480985        40.2996 
  91   0.0000       1.500706        40.8363 
  92   0.0000       1.521681        41.4070 
  93   0.0000       1.536754        41.8172 
  94   0.0000       1.546197        42.0742 
  95   0.0000       1.601711        43.5848 
  96   0.0000       1.628289        44.3080 
  97   0.0000       1.637446        44.5572 
  98   0.0000       1.648913        44.8692 
  99   0.0000       1.665286        45.3147 
 100   0.0000       1.678959        45.6868 
 101   0.0000       1.690381        45.9976 
 102   0.0000       1.698986        46.2318 
 103   0.0000       1.709814        46.5264 
 104   0.0000       1.774446        48.2851 
 105   0.0000       1.795207        48.8501 
 106   0.0000       1.816157        49.4201 
 107   0.0000       1.839260        50.0488 
 108   0.0000       1.853847        50.4457 
 109   0.0000       1.883031        51.2399 
 110   0.0000       1.893698        51.5301 
 111   0.0000       1.904626        51.8275 
 112   0.0000       1.949633        53.0522 
 113   0.0000       1.964921        53.4682 
 114   0.0000       1.991541        54.1926 
 115   0.0000       2.087419        56.8015 
 116   0.0000       2.133293        58.0499 
 117   0.0000       2.141367        58.2696 
 118   0.0000       2.177419        59.2506 
 119   0.0000       2.218868        60.3785 
 120   0.0000       2.268834        61.7381 
 121   0.0000       2.282034        62.0973 
 122   0.0000       2.293807        62.4177 
 123   0.0000       2.381524        64.8046 
 124   0.0000       2.402462        65.3743 
 125   0.0000       2.435465        66.2724 
 126   0.0000       2.456728        66.8510 
 127   0.0000       2.553567        69.4861 
 128   0.0000       2.562889        69.7398 
 129   0.0000       2.609698        71.0135 
 130   0.0000       2.704938        73.6051 
 131   0.0000       2.778618        75.6100 
 132   0.0000       2.803633        76.2907 
 133   0.0000       2.841352        77.3171 
 134   0.0000       3.089594        84.0721 
 135   0.0000       3.199803        87.0711 
 136   0.0000       3.351517        91.1994 
 137   0.0000       3.448586        93.8408 

                    ********************************
                    * MULLIKEN POPULATION ANALYSIS *
                    ********************************

-----------------------
MULLIKEN ATOMIC CHARGES
-----------------------
   0 C :    0.029375
   1 C :   -0.039548
   2 C :    0.049167
   3 C :   -0.024407
   4 C :   -0.018352
   5 C :    0.151950
   6 O :   -0.174669
   7 H :    0.017186
   8 H :   -0.018360
   9 H :   -0.030456
  10 H :    0.048078
  11 H :    0.034028
  12 H :   -0.020731
  13 H :    0.014733
  14 H :   -0.017993
Sum of atomic charges:   -0.0000000

--------------------------------
MULLIKEN REDUCED ORBITAL CHARGES
--------------------------------
  0 C s       :     3.041828  s :     3.041828
      pz      :     0.996899  p :     2.885843
      px      :     0.962356
      py      :     0.926588
      dz2     :     0.002440  d :     0.042953
      dxz     :     0.005397
      dyz     :     0.004385
      dx2y2   :     0.020183
      dxy     :     0.010549
  1 C s       :     3.118436  s :     3.118436
      pz      :     0.969707  p :     2.854996
      px      :     0.968717
      py      :     0.916572
      dz2     :     0.004964  d :     0.066116
      dxz     :     0.013415
      dyz     :     0.004592
      dx2y2   :     0.026797
      dxy     :     0.016348
  2 C s       :     3.122738  s :     3.122738
      pz      :     0.963384  p :     2.763932
      px      :     0.896306
      py      :     0.904242
      dz2     :     0.003506  d :     0.064163
      dxz     :     0.009203
      dyz     :     0.009885
      dx2y2   :     0.017905
      dxy     :     0.023663
  3 C s       :     3.139137  s :     3.139137
      pz      :     0.975902  p :     2.822484
      px      :     0.892293
      py      :     0.954289
      dz2     :     0.003814  d :     0.062786
      dxz     :     0.009003
      dyz     :     0.009345
      dx2y2   :     0.018083
      dxy     :     0.022541
  4 C s       :     3.036355  s :     3.036355
      pz      :     0.992103  p :     2.919212
      px      :     0.947730
      py      :     0.979378
      dz2     :     0.011730  d :     0.062786
      dxz     :     0.016452
      dyz     :     0.003946
      dx2y2   :     0.017788
      dxy     :     0.012869
  5 C s       :     3.129227  s :     3.129227
      pz      :     0.825631  p :     2.572253
      px      :     0.924686
      py      :     0.821936
      dz2     :     0.032022  d :     0.146571
      dxz     :     0.032227
      dyz     :     0.021493
      dx2y2   :     0.024010
      dxy     :     0.036819
  6 O s       :     3.746070  s :     3.746070
      pz      :     1.328874  p :     4.409669
      px      :     1.766193
      py      :     1.314602
      dz2     :     0.004718  d :     0.018930
      dxz     :     0.002208
      dyz     :     0.006302
      dx2y2   :     0.003369
      dxy     :     0.002333
  7 H s       :     0.953040  s :     0.953040
      pz      :     0.006314  p :     0.029774
      px      :     0.016376
      py      :     0.007083
  8 H s       :     0.990149  s :     0.990149
      pz      :     0.006000  p :     0.028211
      px      :     0.004876
      py      :     0.017335
  9 H s       :     1.001960  s :     1.001960
      pz      :     0.007373  p :     0.028496
      px      :     0.009255
      py      :     0.011868
 10 H s       :     0.923113  s :     0.923113
      pz      :     0.016653  p :     0.028809
      px      :     0.005141
      py      :     0.007015
 11 H s       :     0.937559  s :     0.937559
      pz      :     0.006351  p :     0.028413
      px      :     0.004567
      py      :     0.017496
 12 H s       :     0.995831  s :     0.995831
      pz      :     0.003298  p :     0.024900
      px      :     0.017078
      py      :     0.004524
 13 H s       :     0.955727  s :     0.955727
      pz      :     0.006249  p :     0.029539
      px      :     0.005499
      py      :     0.017792
 14 H s       :     0.989162  s :     0.989162
      pz      :     0.008032  p :     0.028831
      px      :     0.008687
      py      :     0.012113


                     *******************************
                     * LOEWDIN POPULATION ANALYSIS *
                     *******************************

----------------------
LOEWDIN ATOMIC CHARGES
----------------------
   0 C :   -0.039574
   1 C :   -0.038297
   2 C :   -0.029766
   3 C :   -0.019287
   4 C :   -0.080792
   5 C :   -0.022810
   6 O :    0.006205
   7 H :    0.026891
   8 H :    0.030685
   9 H :    0.027454
  10 H :    0.054659
  11 H :    0.047686
  12 H :   -0.006833
  13 H :    0.020431
  14 H :    0.023349

-------------------------------
LOEWDIN REDUCED ORBITAL CHARGES
-------------------------------
  0 C s       :     2.846319  s :     2.846319
      pz      :     0.969377  p :     3.051409
      px      :     1.043470
      py      :     1.038562
      dz2     :     0.011537  d :     0.141847
      dxz     :     0.015370
      dyz     :     0.012716
      dx2y2   :     0.063282
      dxy     :     0.038940
  1 C s       :     2.827159  s :     2.827159
      pz      :     0.945599  p :     3.010683
      px      :     1.035711
      py      :     1.029372
      dz2     :     0.016138  d :     0.200456
      dxz     :     0.036583
      dyz     :     0.013195
      dx2y2   :     0.081372
      dxy     :     0.053167
  2 C s       :     2.824753  s :     2.824753
      pz      :     0.951303  p :     3.006801
      px      :     1.006148
      py      :     1.049350
      dz2     :     0.012954  d :     0.198212
      dxz     :     0.024405
      dyz     :     0.027443
      dx2y2   :     0.057236
      dxy     :     0.076175
  3 C s       :     2.828516  s :     2.828516
      pz      :     0.957040  p :     3.001356
      px      :     0.986619
      py      :     1.057697
      dz2     :     0.013058  d :     0.189415
      dxz     :     0.022401
      dyz     :     0.026950
      dx2y2   :     0.058128
      dxy     :     0.068879
  4 C s       :     2.809167  s :     2.809167
      pz      :     1.035543  p :     3.085340
      px      :     1.018696
      py      :     1.031101
      dz2     :     0.039006  d :     0.186285
      dxz     :     0.046763
      dyz     :     0.012221
      dx2y2   :     0.054482
      dxy     :     0.033812
  5 C s       :     2.882628  s :     2.882628
      pz      :     0.873390  p :     2.759569
      px      :     1.009512
      py      :     0.876667
      dz2     :     0.067440  d :     0.380614
      dxz     :     0.090195
      dyz     :     0.065244
      dx2y2   :     0.056441
      dxy     :     0.101294
  6 O s       :     3.494821  s :     3.494821
      pz      :     1.370489  p :     4.466323
      px      :     1.731509
      py      :     1.364325
      dz2     :     0.005820  d :     0.032651
      dxz     :     0.003863
      dyz     :     0.013306
      dx2y2   :     0.005421
      dxy     :     0.004241
  7 H s       :     0.891680  s :     0.891680
      pz      :     0.018977  p :     0.081430
      px      :     0.041587
      py      :     0.020866
  8 H s       :     0.891828  s :     0.891828
      pz      :     0.017469  p :     0.077487
      px      :     0.015556
      py      :     0.044462
  9 H s       :     0.894362  s :     0.894362
      pz      :     0.020908  p :     0.078184
      px      :     0.026394
      py      :     0.030882
 10 H s       :     0.867280  s :     0.867280
      pz      :     0.043275  p :     0.078061
      px      :     0.016889
      py      :     0.017897
 11 H s       :     0.874729  s :     0.874729
      pz      :     0.016931  p :     0.077584
      px      :     0.015384
      py      :     0.045269
 12 H s       :     0.932790  s :     0.932790
      pz      :     0.011118  p :     0.074043
      px      :     0.048379
      py      :     0.014546
 13 H s       :     0.898125  s :     0.898125
      pz      :     0.018792  p :     0.081444
      px      :     0.016055
      py      :     0.046597
 14 H s       :     0.895661  s :     0.895661
      pz      :     0.022703  p :     0.080990
      px      :     0.026866
      py      :     0.031421


                      *****************************
                      * MAYER POPULATION ANALYSIS *
                      *****************************

  NA   - Mulliken gross atomic population
  ZA   - Total nuclear charge
  QA   - Mulliken gross atomic charge
  VA   - Mayer's total valence
  BVA  - Mayer's bonded valence
  FA   - Mayer's free valence

  ATOM       NA         ZA         QA         VA         BVA        FA
  0 C      5.9706     6.0000     0.0294     3.9681     3.9681    -0.0000
  1 C      6.0395     6.0000    -0.0395     4.1944     4.1944    -0.0000
  2 C      5.9508     6.0000     0.0492     4.0417     4.0417    -0.0000
  3 C      6.0244     6.0000    -0.0244     4.0240     4.0240    -0.0000
  4 C      6.0184     6.0000    -0.0184     3.9054     3.9054     0.0000
  5 C      5.8481     6.0000     0.1519     4.1954     4.1954     0.0000
  6 O      8.1747     8.0000    -0.1747     2.3575     2.3575     0.0000
  7 H      0.9828     1.0000     0.0172     0.9687     0.9687     0.0000
  8 H      1.0184     1.0000    -0.0184     0.9668     0.9668    -0.0000
  9 H      1.0305     1.0000    -0.0305     0.9789     0.9789     0.0000
 10 H      0.9519     1.0000     0.0481     0.9740     0.9740     0.0000
 11 H      0.9660     1.0000     0.0340     0.9715     0.9715     0.0000
 12 H      1.0207     1.0000    -0.0207     0.9632     0.9632     0.0000
 13 H      0.9853     1.0000     0.0147     0.9763     0.9763    -0.0000
 14 H      1.0180     1.0000    -0.0180     0.9861     0.9861    -0.0000

  Mayer bond orders larger than 0.1
B(  0-C ,  1-C ) :   1.9910 B(  0-C ,  3-C ) :   0.1014 B(  0-C ,  7-H ) :   0.9288 
B(  0-C , 13-H ) :   0.9302 B(  1-C ,  2-C ) :   1.1644 B(  1-C ,  8-H ) :   0.9334 
B(  2-C ,  3-C ) :   1.8694 B(  2-C ,  9-H ) :   0.9350 B(  3-C ,  4-C ) :   1.0742 
B(  3-C , 14-H ) :   0.9343 B(  4-C ,  5-C ) :   0.9845 B(  4-C , 10-H ) :   0.9127 
B(  4-C , 11-H ) :   0.9236 B(  5-C ,  6-O ) :   2.2515 B(  5-C , 12-H ) :   0.9075 


-------
TIMINGS
-------

Total SCF time: 0 days 0 hours 0 min 37 sec 

Total time                  ....      37.718 sec
Sum of individual times     ....      33.743 sec  ( 89.5%)

Fock matrix formation       ....      29.482 sec  ( 78.2%)
  Split-RI-J                ....       2.919 sec  (  9.9% of F)
  Chain of spheres X        ....      14.612 sec  ( 49.6% of F)
  COS-X 1 center corr.      ....       0.000 sec  (  0.0% of F)
  XC integration            ....       6.434 sec  ( 21.8% of F)
    Basis function eval.    ....       0.786 sec  ( 12.2% of XC)
    Density eval.           ....       0.340 sec  (  5.3% of XC)
    XC-Functional eval.     ....       0.125 sec  (  1.9% of XC)
    XC-Potential eval.      ....       0.580 sec  (  9.0% of XC)
Diagonalization             ....       0.010 sec  (  0.0%)
Density matrix formation    ....       0.016 sec  (  0.0%)
Population analysis         ....       0.140 sec  (  0.4%)
Initial guess               ....       0.008 sec  (  0.0%)
Orbital Transformation      ....       0.000 sec  (  0.0%)
Orbital Orthonormalization  ....       0.004 sec  (  0.0%)
DIIS solution               ....       0.001 sec  (  0.0%)
SOSCF solution              ....       0.371 sec  (  1.0%)
Grid generation             ....       3.716 sec  (  9.9%)

-------------------------   --------------------
FINAL SINGLE POINT ENERGY      -308.442423014814
-------------------------   --------------------

                                *** OPTIMIZATION RUN DONE ***

                            ***************************************
                            *     ORCA property calculations      *
                            ***************************************

                                    ---------------------
                                    Active property flags
                                    ---------------------
   (+) Dipole Moment


------------------------------------------------------------------------------
                       ORCA ELECTRIC PROPERTIES CALCULATION
------------------------------------------------------------------------------

Dipole Moment Calculation                       ... on
Quadrupole Moment Calculation                   ... off
Polarizability Calculation                      ... off
GBWName                                         ... frag_12_c00001.gbw
Electron density file                           ... frag_12_c00001.scfp.tmp
The origin for moment calculation is the CENTER OF MASS  = (-0.723885, -0.576749  0.053859)

-------------
DIPOLE MOMENT
-------------
                                X             Y             Z
Electronic contribution:     -3.73062      -1.38223      -1.78501
Nuclear contribution   :      3.73131       2.00942       2.46475
                        -----------------------------------------
Total Dipole Moment    :      0.00069       0.62719       0.67974
                        -----------------------------------------
Magnitude (a.u.)       :      0.92489
Magnitude (Debye)      :      2.35088


Timings for individual modules:

Sum of individual times         ...      516.639 sec (=   8.611 min)
GTO integral calculation        ...       22.480 sec (=   0.375 min)   4.4 %
SCF iterations                  ...      433.692 sec (=   7.228 min)  83.9 %
SCF Gradient evaluation         ...       56.133 sec (=   0.936 min)  10.9 %
Geometry relaxation             ...        4.334 sec (=   0.072 min)   0.8 %
                             ****ORCA TERMINATED NORMALLY****
TOTAL RUN TIME: 0 days 0 hours 8 minutes 55 seconds 106 msec
