 Entering Gaussian System, Link 0=g09
 Input=c02h04.com
 Output=c02h04.out
 Initial command:
 /home/bing/src/g09_d.01/g09/l1.exe "/data/trash/Gau-2799.inp" -scrdir="/data/trash/"
 Entering Link 1 = /home/bing/src/g09_d.01/g09/l1.exe PID=      2813.
  
 Copyright (c) 1988,1990,1992,1993,1995,1998,2003,2009,2013,
            Gaussian, Inc.  All Rights Reserved.
  
 This is part of the Gaussian(R) 09 program.  It is based on
 the Gaussian(R) 03 system (copyright 2003, Gaussian, Inc.),
 the Gaussian(R) 98 system (copyright 1998, Gaussian, Inc.),
 the Gaussian(R) 94 system (copyright 1995, Gaussian, Inc.),
 the Gaussian 92(TM) system (copyright 1992, Gaussian, Inc.),
 the Gaussian 90(TM) system (copyright 1990, Gaussian, Inc.),
 the Gaussian 88(TM) system (copyright 1988, Gaussian, Inc.),
 the Gaussian 86(TM) system (copyright 1986, Carnegie Mellon
 University), and the Gaussian 82(TM) system (copyright 1983,
 Carnegie Mellon University). Gaussian is a federally registered
 trademark of Gaussian, Inc.
  
 This software contains proprietary and confidential information,
 including trade secrets, belonging to Gaussian, Inc.
  
 This software is provided under written license and may be
 used, copied, transmitted, or stored only in accord with that
 written license.
  
 The following legend is applicable only to US Government
 contracts under FAR:
  
                    RESTRICTED RIGHTS LEGEND
  
 Use, reproduction and disclosure by the US Government is
 subject to restrictions as set forth in subparagraphs (a)
 and (c) of the Commercial Computer Software - Restricted
 Rights clause in FAR 52.227-19.
  
 Gaussian, Inc.
 340 Quinnipiac St., Bldg. 40, Wallingford CT 06492
  
  
 ---------------------------------------------------------------
 Warning -- This program may not be used in any manner that
 competes with the business of Gaussian, Inc. or will provide
 assistance to any competitor of Gaussian, Inc.  The licensee
 of this program is prohibited from giving any competitor of
 Gaussian, Inc. access to this program.  By using this program,
 the user acknowledges that Gaussian, Inc. is engaged in the
 business of creating and licensing software in the field of
 computational chemistry and represents and warrants to the
 licensee that it is not a competitor of Gaussian, Inc. and that
 it will not use this program in any manner prohibited above.
 ---------------------------------------------------------------
  

 Cite this work as:
 Gaussian 09, Revision D.01,
 M. J. Frisch, G. W. Trucks, H. B. Schlegel, G. E. Scuseria, 
 M. A. Robb, J. R. Cheeseman, G. Scalmani, V. Barone, B. Mennucci, 
 G. A. Petersson, H. Nakatsuji, M. Caricato, X. Li, H. P. Hratchian, 
 A. F. Izmaylov, J. Bloino, G. Zheng, J. L. Sonnenberg, M. Hada, 
 M. Ehara, K. Toyota, R. Fukuda, J. Hasegawa, M. Ishida, T. Nakajima, 
 Y. Honda, O. Kitao, H. Nakai, T. Vreven, J. A. Montgomery, Jr., 
 J. E. Peralta, F. Ogliaro, M. Bearpark, J. J. Heyd, E. Brothers, 
 K. N. Kudin, V. N. Staroverov, T. Keith, R. Kobayashi, J. Normand, 
 K. Raghavachari, A. Rendell, J. C. Burant, S. S. Iyengar, J. Tomasi, 
 M. Cossi, N. Rega, J. M. Millam, M. Klene, J. E. Knox, J. B. Cross, 
 V. Bakken, C. Adamo, J. Jaramillo, R. Gomperts, R. E. Stratmann, 
 O. Yazyev, A. J. Austin, R. Cammi, C. Pomelli, J. W. Ochterski, 
 R. L. Martin, K. Morokuma, V. G. Zakrzewski, G. A. Voth, 
 P. Salvador, J. J. Dannenberg, S. Dapprich, A. D. Daniels, 
 O. Farkas, J. B. Foresman, J. V. Ortiz, J. Cioslowski, 
 and D. J. Fox, Gaussian, Inc., Wallingford CT, 2013.
 
 ******************************************
 Gaussian 09:  ES64L-G09RevD.01 24-Apr-2013
                25-Feb-2019 
 ******************************************
 %nproc=6
 Will use up to    6 processors via shared memory.
 -------------------------
 # opt(tight) b3lyp/sto-3g
 -------------------------
 1/7=10,14=-1,18=20,19=15,26=3,38=1/1,3;
 2/9=110,12=2,17=6,18=5,40=1/2;
 3/6=3,11=2,16=1,25=1,30=1,71=1,74=-5/1,2,3;
 4//1;
 5/5=2,38=5/2;
 6/7=2,8=2,9=2,10=2,28=1/1;
 7//1,2,3,16;
 1/7=10,14=-1,18=20,19=15,26=3/3(2);
 2/9=110/2;
 99//99;
 2/9=110/2;
 3/6=3,11=2,16=1,25=1,30=1,71=1,74=-5/1,2,3;
 4/5=5,16=3,69=1/1;
 5/5=2,38=5/2;
 7//1,2,3,16;
 1/7=10,14=-1,18=20,19=15,26=3/3(-5);
 2/9=110/2;
 6/7=2,8=2,9=2,10=2,19=2,28=1/1;
 99/9=1/99;
 ------
 c02h04
 ------
 Symbolic Z-matrix:
 Charge =  0 Multiplicity = 1
 C                     1.35053   1.02396  -0.57561 
 C                     2.53232   0.66733  -0.07975 
 H                     0.43445   0.75975  -0.05634 
 H                     1.29613   1.58243  -1.50442 
 H                     3.44577   0.9335   -0.60208 
 H                     2.59151   0.10871   0.84891 
 

 GradGradGradGradGradGradGradGradGradGradGradGradGradGradGradGradGradGrad
 Berny optimization.
 Initialization pass.
                           ----------------------------
                           !    Initial Parameters    !
                           ! (Angstroms and Degrees)  !
 --------------------------                            --------------------------
 ! Name  Definition              Value          Derivative Info.                !
 --------------------------------------------------------------------------------
 ! R1    R(1,2)                  1.3303         estimate D2E/DX2                !
 ! R2    R(1,3)                  1.0857         estimate D2E/DX2                !
 ! R3    R(1,4)                  1.0851         estimate D2E/DX2                !
 ! R4    R(2,5)                  1.0854         estimate D2E/DX2                !
 ! R5    R(2,6)                  1.0853         estimate D2E/DX2                !
 ! A1    A(2,1,3)              120.4031         estimate D2E/DX2                !
 ! A2    A(2,1,4)              120.1025         estimate D2E/DX2                !
 ! A3    A(3,1,4)              119.4945         estimate D2E/DX2                !
 ! A4    A(1,2,5)              120.1667         estimate D2E/DX2                !
 ! A5    A(1,2,6)              120.3554         estimate D2E/DX2                !
 ! A6    A(5,2,6)              119.4779         estimate D2E/DX2                !
 ! D1    D(3,1,2,5)            179.9998         estimate D2E/DX2                !
 ! D2    D(3,1,2,6)             -0.0004         estimate D2E/DX2                !
 ! D3    D(4,1,2,5)              0.0            estimate D2E/DX2                !
 ! D4    D(4,1,2,6)            179.9998         estimate D2E/DX2                !
 --------------------------------------------------------------------------------
 Trust Radius=3.00D-01 FncErr=1.00D-07 GrdErr=1.00D-06
 Number of steps in this run=     25 maximum allowed number of steps=    100.
 GradGradGradGradGradGradGradGradGradGradGradGradGradGradGradGradGradGrad

                          Input orientation:                          
 ---------------------------------------------------------------------
 Center     Atomic      Atomic             Coordinates (Angstroms)
 Number     Number       Type             X           Y           Z
 ---------------------------------------------------------------------
      1          6           0        1.350530    1.023960   -0.575610
      2          6           0        2.532320    0.667330   -0.079750
      3          1           0        0.434450    0.759750   -0.056340
      4          1           0        1.296130    1.582430   -1.504420
      5          1           0        3.445770    0.933500   -0.602080
      6          1           0        2.591510    0.108710    0.848910
 ---------------------------------------------------------------------
                    Distance matrix (angstroms):
                    1          2          3          4          5
     1  C    0.000000
     2  C    1.330297   0.000000
     3  H    1.085657   2.100035   0.000000
     4  H    1.085143   2.096487   1.875161   0.000000
     5  H    2.097359   1.085387   3.065301   2.419975   0.000000
     6  H    2.099279   1.085343   2.428217   3.063988   1.874943
                    6
     6  H    0.000000
 Stoichiometry    C2H4
 Framework group  C1[X(C2H4)]
 Deg. of freedom    12
 Full point group                 C1      NOp   1
 Largest Abelian subgroup         C1      NOp   1
 Largest concise Abelian subgroup C1      NOp   1
                         Standard orientation:                         
 ---------------------------------------------------------------------
 Center     Atomic      Atomic             Coordinates (Angstroms)
 Number     Number       Type             X           Y           Z
 ---------------------------------------------------------------------
      1          6           0       -0.665163   -0.000156    0.000001
      2          6           0        0.665134   -0.000377    0.000000
      3          1           0       -1.214748   -0.936430   -0.000003
      4          1           0       -1.209259    0.938724    0.000001
      5          1           0        1.210716    0.937923   -0.000001
      6          1           0        1.213469   -0.937018    0.000002
 ---------------------------------------------------------------------
 Rotational constants (GHZ):    142.6287606     30.5542552     25.1636428
 Standard basis: STO-3G (5D, 7F)
 There are    14 symmetry adapted cartesian basis functions of A   symmetry.
 There are    14 symmetry adapted basis functions of A   symmetry.
    14 basis functions,    42 primitive gaussians,    14 cartesian basis functions
     8 alpha electrons        8 beta electrons
       nuclear repulsion energy        33.4206264276 Hartrees.
 NAtoms=    6 NActive=    6 NUniq=    6 SFac= 1.00D+00 NAtFMM=   60 NAOKFM=F Big=F
 Integral buffers will be    131072 words long.
 Raffenetti 2 integral format.
 Two-electron integral symmetry is turned on.
 One-electron integrals computed using PRISM.
 NBasis=    14 RedAO= T EigKep=  1.88D-01  NBF=    14
 NBsUse=    14 1.00D-06 EigRej= -1.00D+00 NBFU=    14
 ExpMin= 1.69D-01 ExpMax= 7.16D+01 ExpMxC= 7.16D+01 IAcc=1 IRadAn=         1 AccDes= 0.00D+00
 Harris functional with IExCor=  402 and IRadAn=       1 diagonalized for initial guess.
 HarFok:  IExCor=  402 AccDes= 0.00D+00 IRadAn=         1 IDoV= 1 UseB2=F ITyADJ=14
 ICtDFT=  3500011 ScaDFX=  1.000000  1.000000  1.000000  1.000000
 FoFCou: FMM=F IPFlag=           0 FMFlag=      100000 FMFlg1=           0
         NFxFlg=           0 DoJE=T BraDBF=F KetDBF=T FulRan=T
         wScrn=  0.000000 ICntrl=     500 IOpCl=  0 I1Cent=   200000004 NGrid=           0
         NMat0=    1 NMatS0=      1 NMatT0=    0 NMatD0=    1 NMtDS0=    0 NMtDT0=    0
 Petite list used in FoFCou.
 Keep R1 ints in memory in canonical form, NReq=884730.
 Requested convergence on RMS density matrix=1.00D-08 within 128 cycles.
 Requested convergence on MAX density matrix=1.00D-06.
 Requested convergence on             energy=1.00D-06.
 No special actions if energy rises.
 Integral accuracy reduced to 1.0D-05 until final iterations.
 Initial convergence to 1.0D-05 achieved.  Increase integral accuracy.
 SCF Done:  E(RB3LYP) =  -77.6212731635     A.U. after    9 cycles
            NFock=  9  Conv=0.60D-09     -V/T= 2.0146

 **********************************************************************

            Population analysis using the SCF density.

 **********************************************************************

 Orbital symmetries:
       Occupied  (A) (A) (A) (A) (A) (A) (A) (A)
       Virtual   (A) (A) (A) (A) (A) (A)
 The electronic state is 1-A.
 Alpha  occ. eigenvalues --   -9.99152  -9.99124  -0.71926  -0.54079  -0.43917
 Alpha  occ. eigenvalues --   -0.37088  -0.32207  -0.21635
 Alpha virt. eigenvalues --    0.11780   0.39662   0.42955   0.44336   0.65411
 Alpha virt. eigenvalues --    0.69072
          Condensed to atoms (all electrons):
               1          2          3          4          5          6
     1  C    4.830173   0.600099   0.390702   0.390803  -0.026291  -0.026164
     2  C    0.600099   4.830182  -0.026108  -0.026358   0.390782   0.390733
     3  H    0.390702  -0.026108   0.581508  -0.022601   0.002216  -0.005384
     4  H    0.390803  -0.026358  -0.022601   0.581763  -0.005496   0.002223
     5  H   -0.026291   0.390782   0.002216  -0.005496   0.581743  -0.022613
     6  H   -0.026164   0.390733  -0.005384   0.002223  -0.022613   0.581545
 Mulliken charges:
               1
     1  C   -0.159323
     2  C   -0.159330
     3  H    0.079667
     4  H    0.079666
     5  H    0.079659
     6  H    0.079660
 Sum of Mulliken charges =   0.00000
 Mulliken charges with hydrogens summed into heavy atoms:
               1
     1  C    0.000011
     2  C   -0.000011
 Electronic spatial extent (au):  <R**2>=             79.8733
 Charge=              0.0000 electrons
 Dipole moment (field-independent basis, Debye):
    X=              0.0000    Y=              0.0008    Z=              0.0000  Tot=              0.0008
 Quadrupole moment (field-independent basis, Debye-Ang):
   XX=            -11.8649   YY=            -11.4752   ZZ=            -13.4796
   XY=              0.0020   XZ=              0.0000   YZ=              0.0000
 Traceless Quadrupole moment (field-independent basis, Debye-Ang):
   XX=              0.4084   YY=              0.7980   ZZ=             -1.2064
   XY=              0.0020   XZ=              0.0000   YZ=              0.0000
 Octapole moment (field-independent basis, Debye-Ang**2):
  XXX=              0.0006  YYY=              0.0074  ZZZ=              0.0000  XYY=             -0.0004
  XXY=             -0.0135  XXZ=              0.0000  XZZ=              0.0000  YZZ=              0.0003
  YYZ=              0.0000  XYZ=              0.0000
 Hexadecapole moment (field-independent basis, Debye-Ang**3):
 XXXX=            -62.4818 YYYY=            -23.6610 ZZZZ=            -10.8853 XXXY=              0.0103
 XXXZ=              0.0000 YYYX=              0.0006 YYYZ=              0.0000 ZZZX=              0.0000
 ZZZY=              0.0000 XXYY=            -11.8746 XXZZ=            -12.7007 YYZZ=             -6.3480
 XXYZ=              0.0000 YYXZ=              0.0000 ZZXY=              0.0002
 N-N= 3.342062642765D+01 E-N=-2.462435151033D+02  KE= 7.650744156803D+01
 Calling FoFJK, ICntrl=      2127 FMM=F ISym2X=0 I1Cent= 0 IOpClX= 0 NMat=1 NMatS=1 NMatT=0.
 ***** Axes restored to original set *****
 -------------------------------------------------------------------
 Center     Atomic                   Forces (Hartrees/Bohr)
 Number     Number              X              Y              Z
 -------------------------------------------------------------------
      1        6           0.009893192   -0.003069735    0.004291299
      2        6          -0.009978205    0.002974985   -0.004125818
      3        1          -0.010424057    0.000459560    0.000116216
      4        1          -0.006515581    0.004821432   -0.007506172
      5        1           0.010779292   -0.000484091   -0.000104718
      6        1           0.006245359   -0.004702151    0.007329193
 -------------------------------------------------------------------
 Cartesian Forces:  Max     0.010779292 RMS     0.006295275

 GradGradGradGradGradGradGradGradGradGradGradGradGradGradGradGradGradGrad
 Berny optimization.
 FormGI is forming the generalized inverse of G from B-inverse, IUseBI=4.
 Internal  Forces:  Max     0.009232795 RMS     0.006229174
 Search for a local minimum.
 Step number   1 out of a maximum of   25
 All quantities printed in internal units (Hartrees-Bohrs-Radians)
 Mixed Optimization -- RFO/linear search
 Second derivative matrix not updated -- first step.
 The second derivative matrix:
                          R1        R2        R3        R4        R5
           R1           0.59436
           R2           0.00000   0.35319
           R3           0.00000   0.00000   0.35380
           R4           0.00000   0.00000   0.00000   0.35351
           R5           0.00000   0.00000   0.00000   0.00000   0.35356
           A1           0.00000   0.00000   0.00000   0.00000   0.00000
           A2           0.00000   0.00000   0.00000   0.00000   0.00000
           A3           0.00000   0.00000   0.00000   0.00000   0.00000
           A4           0.00000   0.00000   0.00000   0.00000   0.00000
           A5           0.00000   0.00000   0.00000   0.00000   0.00000
           A6           0.00000   0.00000   0.00000   0.00000   0.00000
           D1           0.00000   0.00000   0.00000   0.00000   0.00000
           D2           0.00000   0.00000   0.00000   0.00000   0.00000
           D3           0.00000   0.00000   0.00000   0.00000   0.00000
           D4           0.00000   0.00000   0.00000   0.00000   0.00000
                          A1        A2        A3        A4        A5
           A1           0.16000
           A2           0.00000   0.16000
           A3           0.00000   0.00000   0.16000
           A4           0.00000   0.00000   0.00000   0.16000
           A5           0.00000   0.00000   0.00000   0.00000   0.16000
           A6           0.00000   0.00000   0.00000   0.00000   0.00000
           D1           0.00000   0.00000   0.00000   0.00000   0.00000
           D2           0.00000   0.00000   0.00000   0.00000   0.00000
           D3           0.00000   0.00000   0.00000   0.00000   0.00000
           D4           0.00000   0.00000   0.00000   0.00000   0.00000
                          A6        D1        D2        D3        D4
           A6           0.16000
           D1           0.00000   0.03011
           D2           0.00000   0.00000   0.03011
           D3           0.00000   0.00000   0.00000   0.03011
           D4           0.00000   0.00000   0.00000   0.00000   0.03011
 ITU=  0
     Eigenvalues ---    0.03011   0.03011   0.03011   0.16000   0.16000
     Eigenvalues ---    0.16000   0.16000   0.35319   0.35351   0.35356
     Eigenvalues ---    0.35380   0.59436
 RFO step:  Lambda=-2.21284040D-03 EMin= 3.01079482D-02
 Linear search not attempted -- first point.
 Iteration  1 RMS(Cart)=  0.03288318 RMS(Int)=  0.00042552
 Iteration  2 RMS(Cart)=  0.00046124 RMS(Int)=  0.00000010
 Iteration  3 RMS(Cart)=  0.00000011 RMS(Int)=  0.00000000
 Variable       Old X    -DE/DX   Delta X   Delta X   Delta X     New X
                                 (Linear)    (Quad)   (Total)
    R1        2.51390   0.00801   0.00000   0.01342   0.01342   2.52732
    R2        2.05159   0.00874   0.00000   0.02459   0.02459   2.07618
    R3        2.05062   0.00923   0.00000   0.02593   0.02593   2.07656
    R4        2.05109   0.00900   0.00000   0.02531   0.02531   2.07640
    R5        2.05100   0.00903   0.00000   0.02539   0.02539   2.07639
    A1        2.10143   0.00365   0.00000   0.02251   0.02251   2.12394
    A2        2.09618   0.00439   0.00000   0.02709   0.02709   2.12327
    A3        2.08557  -0.00805   0.00000  -0.04960  -0.04960   2.03597
    A4        2.09730   0.00419   0.00000   0.02583   0.02583   2.12314
    A5        2.10060   0.00382   0.00000   0.02354   0.02354   2.12414
    A6        2.08528  -0.00801   0.00000  -0.04937  -0.04937   2.03591
    D1        3.14159   0.00000   0.00000   0.00001   0.00001  -3.14159
    D2       -0.00001   0.00000   0.00000   0.00001   0.00001   0.00000
    D3        0.00000   0.00000   0.00000   0.00000   0.00000   0.00000
    D4        3.14159   0.00000   0.00000   0.00000   0.00000  -3.14159
         Item               Value     Threshold  Converged?
 Maximum Force            0.009233     0.000015     NO 
 RMS     Force            0.006229     0.000010     NO 
 Maximum Displacement     0.062052     0.000060     NO 
 RMS     Displacement     0.033023     0.000040     NO 
 Predicted change in Energy=-1.117596D-03
 GradGradGradGradGradGradGradGradGradGradGradGradGradGradGradGradGradGrad

                          Input orientation:                          
 ---------------------------------------------------------------------
 Center     Atomic      Atomic             Coordinates (Angstroms)
 Number     Number       Type             X           Y           Z
 ---------------------------------------------------------------------
      1          6           0        1.347729    1.025221   -0.577482
      2          6           0        2.535646    0.666513   -0.078664
      3          1           0        0.407507    0.769284   -0.069986
      4          1           0        1.263293    1.590889   -1.515778
      5          1           0        3.475509    0.922881   -0.586850
      6          1           0        2.621025    0.100892    0.859469
 ---------------------------------------------------------------------
                    Distance matrix (angstroms):
                    1          2          3          4          5
     1  C    0.000000
     2  C    1.337400   0.000000
     3  H    1.098669   2.130637   0.000000
     4  H    1.098867   2.130411   1.870220   0.000000
     5  H    2.130261   1.098781   3.115025   2.490591   0.000000
     6  H    2.130844   1.098777   2.492047   3.115337   1.870200
                    6
     6  H    0.000000
 Stoichiometry    C2H4
 Framework group  C1[X(C2H4)]
 Deg. of freedom    12
 Full point group                 C1      NOp   1
 Largest Abelian subgroup         C1      NOp   1
 Largest concise Abelian subgroup C1      NOp   1
                         Standard orientation:                         
 ---------------------------------------------------------------------
 Center     Atomic      Atomic             Coordinates (Angstroms)
 Number     Number       Type             X           Y           Z
 ---------------------------------------------------------------------
      1          6           0       -0.668704   -0.000100    0.000000
      2          6           0        0.668695   -0.000042    0.000000
      3          1           0       -1.245867   -0.934957    0.000001
      4          1           0       -1.245425    0.935262    0.000000
      5          1           0        1.245166    0.935373    0.000000
      6          1           0        1.246180   -0.934826    0.000000
 ---------------------------------------------------------------------
 Rotational constants (GHZ):    143.3677653     29.7508073     24.6380656
 Standard basis: STO-3G (5D, 7F)
 There are    14 symmetry adapted cartesian basis functions of A   symmetry.
 There are    14 symmetry adapted basis functions of A   symmetry.
    14 basis functions,    42 primitive gaussians,    14 cartesian basis functions
     8 alpha electrons        8 beta electrons
       nuclear repulsion energy        33.0944256281 Hartrees.
 NAtoms=    6 NActive=    6 NUniq=    6 SFac= 1.00D+00 NAtFMM=   60 NAOKFM=F Big=F
 Integral buffers will be    131072 words long.
 Raffenetti 2 integral format.
 Two-electron integral symmetry is turned on.
 One-electron integrals computed using PRISM.
 NBasis=    14 RedAO= T EigKep=  1.94D-01  NBF=    14
 NBsUse=    14 1.00D-06 EigRej= -1.00D+00 NBFU=    14
 Initial guess from the checkpoint file:  "/data/trash/Gau-2813.chk"
 B after Tr=     0.000000    0.000000    0.000000
         Rot=    1.000000    0.000000    0.000000   -0.000209 Ang=  -0.02 deg.
 ExpMin= 1.69D-01 ExpMax= 7.16D+01 ExpMxC= 7.16D+01 IAcc=1 IRadAn=         1 AccDes= 0.00D+00
 Harris functional with IExCor=  402 and IRadAn=       1 diagonalized for initial guess.
 HarFok:  IExCor=  402 AccDes= 0.00D+00 IRadAn=         1 IDoV= 1 UseB2=F ITyADJ=14
 ICtDFT=  3500011 ScaDFX=  1.000000  1.000000  1.000000  1.000000
 FoFCou: FMM=F IPFlag=           0 FMFlag=      100000 FMFlg1=           0
         NFxFlg=           0 DoJE=T BraDBF=F KetDBF=T FulRan=T
         wScrn=  0.000000 ICntrl=     500 IOpCl=  0 I1Cent=   200000004 NGrid=           0
         NMat0=    1 NMatS0=      1 NMatT0=    0 NMatD0=    1 NMtDS0=    0 NMtDT0=    0
 Petite list used in FoFCou.
 Keep R1 ints in memory in canonical form, NReq=884730.
 Requested convergence on RMS density matrix=1.00D-08 within 128 cycles.
 Requested convergence on MAX density matrix=1.00D-06.
 Requested convergence on             energy=1.00D-06.
 No special actions if energy rises.
 Integral accuracy reduced to 1.0D-05 until final iterations.
 Initial convergence to 1.0D-05 achieved.  Increase integral accuracy.
 SCF Done:  E(RB3LYP) =  -77.6223745960     A.U. after    8 cycles
            NFock=  8  Conv=0.65D-08     -V/T= 2.0153
 Calling FoFJK, ICntrl=      2127 FMM=F ISym2X=0 I1Cent= 0 IOpClX= 0 NMat=1 NMatS=1 NMatT=0.
 ***** Axes restored to original set *****
 -------------------------------------------------------------------
 Center     Atomic                   Forces (Hartrees/Bohr)
 Number     Number              X              Y              Z
 -------------------------------------------------------------------
      1        6           0.005308840   -0.001530938    0.002108858
      2        6          -0.005211283    0.001604422   -0.002239869
      3        1           0.000579395    0.000787535   -0.001365545
      4        1          -0.000967023   -0.000757103    0.001347422
      5        1          -0.000626880   -0.000826772    0.001434967
      6        1           0.000916951    0.000722856   -0.001285833
 -------------------------------------------------------------------
 Cartesian Forces:  Max     0.005308840 RMS     0.002134639

 GradGradGradGradGradGradGradGradGradGradGradGradGradGradGradGradGradGrad
 Berny optimization.
 Using GEDIIS/GDIIS optimizer.
 FormGI is forming the generalized inverse of G from B-inverse, IUseBI=4.
 Internal  Forces:  Max     0.005553412 RMS     0.001734497
 Search for a local minimum.
 Step number   2 out of a maximum of   25
 All quantities printed in internal units (Hartrees-Bohrs-Radians)
 Mixed Optimization -- RFO/linear search
 Update second derivatives using D2CorX and points    1    2
 DE= -1.10D-03 DEPred=-1.12D-03 R= 9.86D-01
 TightC=F SS=  1.41D+00  RLast= 1.01D-01 DXNew= 5.0454D-01 3.0153D-01
 Trust test= 9.86D-01 RLast= 1.01D-01 DXMaxT set to 3.02D-01
 The second derivative matrix:
                          R1        R2        R3        R4        R5
           R1           0.64854
           R2           0.03005   0.36447
           R3           0.03225   0.01229   0.36718
           R4           0.03123   0.01181   0.01287   0.36589
           R5           0.03133   0.01186   0.01291   0.01242   0.36603
           A1           0.00497  -0.00087  -0.00081  -0.00084  -0.00084
           A2           0.00644  -0.00071  -0.00062  -0.00067  -0.00067
           A3          -0.01141   0.00159   0.00144   0.00151   0.00151
           A4           0.00575  -0.00097  -0.00090  -0.00093  -0.00093
           A5           0.00562  -0.00061  -0.00052  -0.00056  -0.00056
           A6          -0.01137   0.00158   0.00142   0.00150   0.00150
           D1           0.00000   0.00000   0.00000   0.00000   0.00000
           D2           0.00000   0.00000   0.00000   0.00000   0.00000
           D3           0.00000   0.00000   0.00000   0.00000   0.00000
           D4           0.00000   0.00000   0.00000   0.00000   0.00000
                          A1        A2        A3        A4        A5
           A1           0.15801
           A2          -0.00230   0.15736
           A3           0.00429   0.00494   0.15078
           A4          -0.00227  -0.00262   0.00490   0.15740
           A5          -0.00199  -0.00229   0.00428  -0.00227   0.15801
           A6           0.00427   0.00491  -0.00918   0.00487   0.00426
           D1           0.00000   0.00000   0.00000   0.00000   0.00000
           D2           0.00000   0.00000   0.00000   0.00000   0.00000
           D3           0.00000   0.00000   0.00000   0.00000   0.00000
           D4           0.00000   0.00000   0.00000   0.00000   0.00000
                          A6        D1        D2        D3        D4
           A6           0.15087
           D1           0.00000   0.03011
           D2           0.00000   0.00000   0.03011
           D3           0.00000   0.00000   0.00000   0.03011
           D4           0.00000   0.00000   0.00000   0.00000   0.03011
 ITU=  1  0
 Use linear search instead of GDIIS.
     Eigenvalues ---    0.03011   0.03011   0.03011   0.13145   0.16000
     Eigenvalues ---    0.16000   0.16000   0.35328   0.35354   0.35372
     Eigenvalues ---    0.38842   0.66412
 RFO step:  Lambda=-1.14939817D-04 EMin= 3.01079482D-02
 Quartic linear search produced a step of  0.00163.
 Iteration  1 RMS(Cart)=  0.00532871 RMS(Int)=  0.00001985
 Iteration  2 RMS(Cart)=  0.00002058 RMS(Int)=  0.00000000
 Iteration  3 RMS(Cart)=  0.00000000 RMS(Int)=  0.00000000
 Variable       Old X    -DE/DX   Delta X   Delta X   Delta X     New X
                                 (Linear)    (Quad)   (Total)
    R1        2.52732  -0.00555   0.00002  -0.00869  -0.00867   2.51865
    R2        2.07618  -0.00131   0.00004  -0.00250  -0.00246   2.07373
    R3        2.07656  -0.00147   0.00004  -0.00287  -0.00282   2.07373
    R4        2.07640  -0.00139   0.00004  -0.00269  -0.00265   2.07374
    R5        2.07639  -0.00140   0.00004  -0.00270  -0.00266   2.07372
    A1        2.12394   0.00070   0.00004   0.00552   0.00556   2.12950
    A2        2.12327   0.00077   0.00004   0.00618   0.00622   2.12949
    A3        2.03597  -0.00148  -0.00008  -0.01170  -0.01178   2.02420
    A4        2.12314   0.00080   0.00004   0.00629   0.00633   2.12947
    A5        2.12414   0.00067   0.00004   0.00535   0.00538   2.12952
    A6        2.03591  -0.00147  -0.00008  -0.01163  -0.01172   2.02419
    D1       -3.14159   0.00000   0.00000   0.00000   0.00000   3.14159
    D2        0.00000   0.00000   0.00000   0.00000   0.00000   0.00000
    D3        0.00000   0.00000   0.00000   0.00000   0.00000   0.00000
    D4       -3.14159   0.00000   0.00000   0.00000   0.00000  -3.14159
         Item               Value     Threshold  Converged?
 Maximum Force            0.005553     0.000015     NO 
 RMS     Force            0.001734     0.000010     NO 
 Maximum Displacement     0.008787     0.000060     NO 
 RMS     Displacement     0.005332     0.000040     NO 
 Predicted change in Energy=-5.749348D-05
 GradGradGradGradGradGradGradGradGradGradGradGradGradGradGradGradGradGrad

                          Input orientation:                          
 ---------------------------------------------------------------------
 Center     Atomic      Atomic             Coordinates (Angstroms)
 Number     Number       Type             X           Y           Z
 ---------------------------------------------------------------------
      1          6           0        1.349850    1.024673   -0.576746
      2          6           0        2.533711    0.667214   -0.079672
      3          1           0        0.407630    0.771825   -0.074245
      4          1           0        1.258697    1.589546   -1.513142
      5          1           0        3.475924    0.920077   -0.582200
      6          1           0        2.624899    0.102344    0.856715
 ---------------------------------------------------------------------
                    Distance matrix (angstroms):
                    1          2          3          4          5
     1  C    0.000000
     2  C    1.332812   0.000000
     3  H    1.097369   2.128660   0.000000
     4  H    1.097373   2.128660   1.861023   0.000000
     5  H    2.128652   1.097378   3.113587   2.496185   0.000000
     6  H    2.128674   1.097367   2.496232   3.113600   1.861023
                    6
     6  H    0.000000
 Stoichiometry    C2H4
 Framework group  C1[X(C2H4)]
 Deg. of freedom    12
 Full point group                 C1      NOp   1
 Largest Abelian subgroup         C1      NOp   1
 Largest concise Abelian subgroup C1      NOp   1
                         Standard orientation:                         
 ---------------------------------------------------------------------
 Center     Atomic      Atomic             Coordinates (Angstroms)
 Number     Number       Type             X           Y           Z
 ---------------------------------------------------------------------
      1          6           0       -0.666406   -0.000003    0.000000
      2          6           0        0.666405   -0.000003    0.000000
      3          1           0       -1.248105   -0.930511    0.000000
      4          1           0       -1.248101    0.930513    0.000000
      5          1           0        1.248083    0.930528    0.000000
      6          1           0        1.248127   -0.930495    0.000000
 ---------------------------------------------------------------------
 Rotational constants (GHZ):    144.7866059     29.8367527     24.7387416
 Standard basis: STO-3G (5D, 7F)
 There are    14 symmetry adapted cartesian basis functions of A   symmetry.
 There are    14 symmetry adapted basis functions of A   symmetry.
    14 basis functions,    42 primitive gaussians,    14 cartesian basis functions
     8 alpha electrons        8 beta electrons
       nuclear repulsion energy        33.1656147503 Hartrees.
 NAtoms=    6 NActive=    6 NUniq=    6 SFac= 1.00D+00 NAtFMM=   60 NAOKFM=F Big=F
 Integral buffers will be    131072 words long.
 Raffenetti 2 integral format.
 Two-electron integral symmetry is turned on.
 One-electron integrals computed using PRISM.
 NBasis=    14 RedAO= T EigKep=  1.92D-01  NBF=    14
 NBsUse=    14 1.00D-06 EigRej= -1.00D+00 NBFU=    14
 Initial guess from the checkpoint file:  "/data/trash/Gau-2813.chk"
 B after Tr=     0.000000    0.000000    0.000000
         Rot=    1.000000    0.000000    0.000000    0.000033 Ang=   0.00 deg.
 Keep R1 ints in memory in canonical form, NReq=884730.
 Requested convergence on RMS density matrix=1.00D-08 within 128 cycles.
 Requested convergence on MAX density matrix=1.00D-06.
 Requested convergence on             energy=1.00D-06.
 No special actions if energy rises.
 SCF Done:  E(RB3LYP) =  -77.6224343427     A.U. after    7 cycles
            NFock=  7  Conv=0.13D-08     -V/T= 2.0152
 Calling FoFJK, ICntrl=      2127 FMM=F ISym2X=0 I1Cent= 0 IOpClX= 0 NMat=1 NMatS=1 NMatT=0.
 ***** Axes restored to original set *****
 -------------------------------------------------------------------
 Center     Atomic                   Forces (Hartrees/Bohr)
 Number     Number              X              Y              Z
 -------------------------------------------------------------------
      1        6          -0.000109691    0.000032842   -0.000045626
      2        6           0.000116551   -0.000028421    0.000037601
      3        1           0.000124156    0.000064971   -0.000119101
      4        1          -0.000037612   -0.000092644    0.000158047
      5        1          -0.000129297   -0.000067110    0.000123144
      6        1           0.000035892    0.000090362   -0.000154065
 -------------------------------------------------------------------
 Cartesian Forces:  Max     0.000158047 RMS     0.000097003

 GradGradGradGradGradGradGradGradGradGradGradGradGradGradGradGradGradGrad
 Berny optimization.
 Using GEDIIS/GDIIS optimizer.
 FormGI is forming the generalized inverse of G from B-inverse, IUseBI=4.
 Internal  Forces:  Max     0.000182870 RMS     0.000097911
 Search for a local minimum.
 Step number   3 out of a maximum of   25
 All quantities printed in internal units (Hartrees-Bohrs-Radians)
 Mixed Optimization -- En-DIIS/RFO-DIIS
 Update second derivatives using D2CorX and points    1    2    3
 DE= -5.97D-05 DEPred=-5.75D-05 R= 1.04D+00
 TightC=F SS=  1.41D+00  RLast= 2.28D-02 DXNew= 5.0711D-01 6.8270D-02
 Trust test= 1.04D+00 RLast= 2.28D-02 DXMaxT set to 3.02D-01
 The second derivative matrix:
                          R1        R2        R3        R4        R5
           R1           0.65851
           R2           0.02358   0.36222
           R3           0.02585   0.00984   0.36454
           R4           0.02457   0.00943   0.01028   0.36336
           R5           0.02504   0.00951   0.01038   0.00994   0.36360
           A1           0.00498   0.00041   0.00050   0.00049   0.00043
           A2           0.00622   0.00069   0.00081   0.00079   0.00073
           A3          -0.01120  -0.00110  -0.00130  -0.00128  -0.00116
           A4           0.00567   0.00048   0.00058   0.00057   0.00051
           A5           0.00548   0.00062   0.00072   0.00071   0.00065
           A6          -0.01115  -0.00110  -0.00130  -0.00128  -0.00116
           D1           0.00000   0.00000   0.00000   0.00000   0.00000
           D2           0.00000   0.00000   0.00000   0.00000   0.00000
           D3           0.00000   0.00000   0.00000   0.00000   0.00000
           D4           0.00000   0.00000   0.00000   0.00000   0.00000
                          A1        A2        A3        A4        A5
           A1           0.15769
           A2          -0.00262   0.15704
           A3           0.00492   0.00558   0.14950
           A4          -0.00262  -0.00297   0.00560   0.15702
           A5          -0.00228  -0.00258   0.00485  -0.00259   0.15776
           A6           0.00490   0.00555  -0.01045   0.00557   0.00483
           D1           0.00000   0.00000   0.00000   0.00000   0.00000
           D2           0.00000   0.00000   0.00000   0.00000   0.00000
           D3           0.00000   0.00000   0.00000   0.00000   0.00000
           D4           0.00000   0.00000   0.00000   0.00000   0.00000
                          A6        D1        D2        D3        D4
           A6           0.14960
           D1           0.00000   0.03011
           D2           0.00000   0.00000   0.03011
           D3           0.00000   0.00000   0.00000   0.03011
           D4           0.00000   0.00000   0.00000   0.00000   0.03011
 ITU=  1  1  0
 Use linear search instead of GDIIS.
     Eigenvalues ---    0.03011   0.03011   0.03011   0.12787   0.16000
     Eigenvalues ---    0.16000   0.16000   0.35328   0.35354   0.35372
     Eigenvalues ---    0.38423   0.66819
 RFO step:  Lambda=-2.95469162D-07 EMin= 3.01079482D-02
 Quartic linear search produced a step of  0.03804.
 Iteration  1 RMS(Cart)=  0.00039578 RMS(Int)=  0.00000007
 Iteration  2 RMS(Cart)=  0.00000008 RMS(Int)=  0.00000000
 Variable       Old X    -DE/DX   Delta X   Delta X   Delta X     New X
                                 (Linear)    (Quad)   (Total)
    R1        2.51865   0.00002  -0.00033   0.00041   0.00008   2.51873
    R2        2.07373  -0.00018  -0.00009  -0.00037  -0.00046   2.07327
    R3        2.07373  -0.00018  -0.00011  -0.00036  -0.00046   2.07327
    R4        2.07374  -0.00018  -0.00010  -0.00038  -0.00048   2.07327
    R5        2.07372  -0.00017  -0.00010  -0.00035  -0.00045   2.07327
    A1        2.12950   0.00004   0.00021   0.00007   0.00028   2.12978
    A2        2.12949   0.00004   0.00024   0.00005   0.00029   2.12978
    A3        2.02420  -0.00007  -0.00045  -0.00012  -0.00057   2.02363
    A4        2.12947   0.00004   0.00024   0.00007   0.00031   2.12978
    A5        2.12952   0.00003   0.00020   0.00005   0.00026   2.12978
    A6        2.02419  -0.00007  -0.00045  -0.00012  -0.00057   2.02362
    D1        3.14159   0.00000   0.00000   0.00000   0.00000  -3.14159
    D2        0.00000   0.00000   0.00000   0.00000   0.00000   0.00000
    D3        0.00000   0.00000   0.00000   0.00000   0.00000   0.00000
    D4       -3.14159   0.00000   0.00000   0.00000   0.00000   3.14159
         Item               Value     Threshold  Converged?
 Maximum Force            0.000183     0.000015     NO 
 RMS     Force            0.000098     0.000010     NO 
 Maximum Displacement     0.000671     0.000060     NO 
 RMS     Displacement     0.000396     0.000040     NO 
 Predicted change in Energy=-2.295393D-07
 GradGradGradGradGradGradGradGradGradGradGradGradGradGradGradGradGradGrad

                          Input orientation:                          
 ---------------------------------------------------------------------
 Center     Atomic      Atomic             Coordinates (Angstroms)
 Number     Number       Type             X           Y           Z
 ---------------------------------------------------------------------
      1          6           0        1.349834    1.024680   -0.576756
      2          6           0        2.533736    0.667213   -0.079674
      3          1           0        0.407668    0.772027   -0.074585
      4          1           0        1.258377    1.589424   -1.512912
      5          1           0        3.475902    0.919866   -0.581845
      6          1           0        2.625194    0.102469    0.856482
 ---------------------------------------------------------------------
                    Distance matrix (angstroms):
                    1          2          3          4          5
     1  C    0.000000
     2  C    1.332853   0.000000
     3  H    1.097126   2.128657   0.000000
     4  H    1.097127   2.128658   1.860276   0.000000
     5  H    2.128656   1.097126   3.113395   2.496520   0.000000
     6  H    2.128659   1.097127   2.496521   3.113399   1.860276
                    6
     6  H    0.000000
 Stoichiometry    C2H4
 Framework group  C1[X(C2H4)]
 Deg. of freedom    12
 Full point group                 C1      NOp   1
 Largest Abelian subgroup         C1      NOp   1
 Largest concise Abelian subgroup C1      NOp   1
                         Standard orientation:                         
 ---------------------------------------------------------------------
 Center     Atomic      Atomic             Coordinates (Angstroms)
 Number     Number       Type             X           Y           Z
 ---------------------------------------------------------------------
      1          6           0       -0.666427    0.000000    0.000000
      2          6           0        0.666427    0.000000    0.000000
      3          1           0       -1.248259   -0.930139    0.000000
      4          1           0       -1.248261    0.930137    0.000000
      5          1           0        1.248259    0.930138    0.000000
      6          1           0        1.248262   -0.930137    0.000000
 ---------------------------------------------------------------------
 Rotational constants (GHZ):    144.9029941     29.8328141     24.7394288
 Standard basis: STO-3G (5D, 7F)
 There are    14 symmetry adapted cartesian basis functions of A   symmetry.
 There are    14 symmetry adapted basis functions of A   symmetry.
    14 basis functions,    42 primitive gaussians,    14 cartesian basis functions
     8 alpha electrons        8 beta electrons
       nuclear repulsion energy        33.1679640563 Hartrees.
 NAtoms=    6 NActive=    6 NUniq=    6 SFac= 1.00D+00 NAtFMM=   60 NAOKFM=F Big=F
 Integral buffers will be    131072 words long.
 Raffenetti 2 integral format.
 Two-electron integral symmetry is turned on.
 One-electron integrals computed using PRISM.
 NBasis=    14 RedAO= T EigKep=  1.92D-01  NBF=    14
 NBsUse=    14 1.00D-06 EigRej= -1.00D+00 NBFU=    14
 Initial guess from the checkpoint file:  "/data/trash/Gau-2813.chk"
 B after Tr=     0.000000    0.000000    0.000000
         Rot=    1.000000    0.000000    0.000000    0.000002 Ang=   0.00 deg.
 Keep R1 ints in memory in canonical form, NReq=884730.
 Requested convergence on RMS density matrix=1.00D-08 within 128 cycles.
 Requested convergence on MAX density matrix=1.00D-06.
 Requested convergence on             energy=1.00D-06.
 No special actions if energy rises.
 SCF Done:  E(RB3LYP) =  -77.6224345392     A.U. after    6 cycles
            NFock=  6  Conv=0.38D-09     -V/T= 2.0152
 Calling FoFJK, ICntrl=      2127 FMM=F ISym2X=0 I1Cent= 0 IOpClX= 0 NMat=1 NMatS=1 NMatT=0.
 ***** Axes restored to original set *****
 -------------------------------------------------------------------
 Center     Atomic                   Forces (Hartrees/Bohr)
 Number     Number              X              Y              Z
 -------------------------------------------------------------------
      1        6           0.000073558   -0.000022036    0.000030622
      2        6          -0.000073843    0.000021792   -0.000030143
      3        1          -0.000014031   -0.000008684    0.000015690
      4        1           0.000006607    0.000010623   -0.000018326
      5        1           0.000014408    0.000008806   -0.000015952
      6        1          -0.000006700   -0.000010500    0.000018110
 -------------------------------------------------------------------
 Cartesian Forces:  Max     0.000073843 RMS     0.000029537

 GradGradGradGradGradGradGradGradGradGradGradGradGradGradGradGradGradGrad
 Berny optimization.
 Using GEDIIS/GDIIS optimizer.
 FormGI is forming the generalized inverse of G from B-inverse, IUseBI=4.
 Internal  Forces:  Max     0.000074571 RMS     0.000022678
 Search for a local minimum.
 Step number   4 out of a maximum of   25
 All quantities printed in internal units (Hartrees-Bohrs-Radians)
 Mixed Optimization -- En-DIIS/RFO-DIIS
 Swapping is turned off.
 Update second derivatives using D2CorX and points    1    2    3    4
 DE= -1.97D-07 DEPred=-2.30D-07 R= 8.56D-01
 Trust test= 8.56D-01 RLast= 1.36D-03 DXMaxT set to 3.02D-01
 The second derivative matrix:
                          R1        R2        R3        R4        R5
           R1           0.67289
           R2          -0.00303   0.36894
           R3          -0.00108   0.01631   0.37075
           R4          -0.00303   0.01629   0.01688   0.37036
           R5          -0.00126   0.01591   0.01653   0.01647   0.36968
           A1           0.01166  -0.00158  -0.00143  -0.00155  -0.00147
           A2           0.01302  -0.00143  -0.00125  -0.00137  -0.00130
           A3          -0.02468   0.00301   0.00268   0.00292   0.00277
           A4           0.01292  -0.00152  -0.00136  -0.00147  -0.00140
           A5           0.01164  -0.00152  -0.00137  -0.00148  -0.00141
           A6          -0.02456   0.00305   0.00272   0.00296   0.00281
           D1           0.00000   0.00000   0.00000   0.00000   0.00000
           D2           0.00000   0.00000   0.00000   0.00000   0.00000
           D3           0.00000   0.00000   0.00000   0.00000   0.00000
           D4           0.00000   0.00000   0.00000   0.00000   0.00000
                          A1        A2        A3        A4        A5
           A1           0.15821
           A2          -0.00208   0.15760
           A3           0.00386   0.00448   0.15166
           A4          -0.00210  -0.00243   0.00452   0.15755
           A5          -0.00173  -0.00201   0.00375  -0.00203   0.15832
           A6           0.00383   0.00444  -0.00827   0.00449   0.00372
           D1           0.00000   0.00000   0.00000   0.00000   0.00000
           D2           0.00000   0.00000   0.00000   0.00000   0.00000
           D3           0.00000   0.00000   0.00000   0.00000   0.00000
           D4           0.00000   0.00000   0.00000   0.00000   0.00000
                          A6        D1        D2        D3        D4
           A6           0.15180
           D1           0.00000   0.03011
           D2           0.00000   0.00000   0.03011
           D3           0.00000   0.00000   0.00000   0.03011
           D4           0.00000   0.00000   0.00000   0.00000   0.03011
 ITU=  0  1  1  0
     Eigenvalues ---    0.03011   0.03011   0.03011   0.13145   0.16000
     Eigenvalues ---    0.16000   0.16001   0.35330   0.35355   0.35373
     Eigenvalues ---    0.41937   0.67637
 En-DIIS/RFO-DIIS IScMMF=        0 using points:     4    3
 RFO step:  Lambda=-1.01746416D-08.
 DidBck=F Rises=F RFO-DIIS coefs:    0.87659    0.12341
 Iteration  1 RMS(Cart)=  0.00006000 RMS(Int)=  0.00000000
 Iteration  2 RMS(Cart)=  0.00000000 RMS(Int)=  0.00000000
 Variable       Old X    -DE/DX   Delta X   Delta X   Delta X     New X
                                 (Linear)    (Quad)   (Total)
    R1        2.51873  -0.00007  -0.00001  -0.00009  -0.00010   2.51862
    R2        2.07327   0.00002   0.00006  -0.00001   0.00005   2.07332
    R3        2.07327   0.00002   0.00006  -0.00001   0.00005   2.07332
    R4        2.07327   0.00002   0.00006  -0.00001   0.00005   2.07332
    R5        2.07327   0.00002   0.00006  -0.00001   0.00005   2.07332
    A1        2.12978  -0.00001  -0.00003   0.00000  -0.00003   2.12975
    A2        2.12978  -0.00001  -0.00004   0.00000  -0.00003   2.12975
    A3        2.02363   0.00001   0.00007  -0.00001   0.00006   2.02369
    A4        2.12978  -0.00001  -0.00004   0.00001  -0.00003   2.12975
    A5        2.12978  -0.00001  -0.00003   0.00000  -0.00003   2.12975
    A6        2.02362   0.00001   0.00007  -0.00001   0.00006   2.02369
    D1       -3.14159   0.00000   0.00000   0.00000   0.00000   3.14159
    D2        0.00000   0.00000   0.00000   0.00000   0.00000   0.00000
    D3        0.00000   0.00000   0.00000   0.00000   0.00000   0.00000
    D4        3.14159   0.00000   0.00000   0.00000   0.00000  -3.14159
         Item               Value     Threshold  Converged?
 Maximum Force            0.000075     0.000015     NO 
 RMS     Force            0.000023     0.000010     NO 
 Maximum Displacement     0.000107     0.000060     NO 
 RMS     Displacement     0.000060     0.000040     NO 
 Predicted change in Energy=-6.948558D-09
 GradGradGradGradGradGradGradGradGradGradGradGradGradGradGradGradGradGrad

                          Input orientation:                          
 ---------------------------------------------------------------------
 Center     Atomic      Atomic             Coordinates (Angstroms)
 Number     Number       Type             X           Y           Z
 ---------------------------------------------------------------------
      1          6           0        1.349858    1.024673   -0.576746
      2          6           0        2.533712    0.667221   -0.079684
      3          1           0        0.407687    0.771998   -0.074538
      4          1           0        1.258433    1.589430   -1.512926
      5          1           0        3.475883    0.919895   -0.581892
      6          1           0        2.625137    0.102463    0.856496
 ---------------------------------------------------------------------
                    Distance matrix (angstroms):
                    1          2          3          4          5
     1  C    0.000000
     2  C    1.332799   0.000000
     3  H    1.097152   2.128612   0.000000
     4  H    1.097152   2.128612   1.860355   0.000000
     5  H    2.128612   1.097152   3.113376   2.496435   0.000000
     6  H    2.128612   1.097152   2.496435   3.113376   1.860355
                    6
     6  H    0.000000
 Stoichiometry    C2H4
 Framework group  C1[X(C2H4)]
 Deg. of freedom    12
 Full point group                 C1      NOp   1
 Largest Abelian subgroup         C1      NOp   1
 Largest concise Abelian subgroup C1      NOp   1
                         Standard orientation:                         
 ---------------------------------------------------------------------
 Center     Atomic      Atomic             Coordinates (Angstroms)
 Number     Number       Type             X           Y           Z
 ---------------------------------------------------------------------
      1          6           0       -0.666399    0.000000    0.000000
      2          6           0        0.666399    0.000000    0.000000
      3          1           0       -1.248218   -0.930178    0.000000
      4          1           0       -1.248217    0.930178    0.000000
      5          1           0        1.248218    0.930177    0.000000
      6          1           0        1.248217   -0.930178    0.000000
 ---------------------------------------------------------------------
 Rotational constants (GHZ):    144.8906219     29.8351131     24.7406491
 Standard basis: STO-3G (5D, 7F)
 There are    14 symmetry adapted cartesian basis functions of A   symmetry.
 There are    14 symmetry adapted basis functions of A   symmetry.
    14 basis functions,    42 primitive gaussians,    14 cartesian basis functions
     8 alpha electrons        8 beta electrons
       nuclear repulsion energy        33.1684024192 Hartrees.
 NAtoms=    6 NActive=    6 NUniq=    6 SFac= 1.00D+00 NAtFMM=   60 NAOKFM=F Big=F
 Integral buffers will be    131072 words long.
 Raffenetti 2 integral format.
 Two-electron integral symmetry is turned on.
 One-electron integrals computed using PRISM.
 NBasis=    14 RedAO= T EigKep=  1.92D-01  NBF=    14
 NBsUse=    14 1.00D-06 EigRej= -1.00D+00 NBFU=    14
 Initial guess from the checkpoint file:  "/data/trash/Gau-2813.chk"
 B after Tr=     0.000000    0.000000    0.000000
         Rot=    1.000000    0.000000    0.000000    0.000000 Ang=   0.00 deg.
 Keep R1 ints in memory in canonical form, NReq=884730.
 Requested convergence on RMS density matrix=1.00D-08 within 128 cycles.
 Requested convergence on MAX density matrix=1.00D-06.
 Requested convergence on             energy=1.00D-06.
 No special actions if energy rises.
 SCF Done:  E(RB3LYP) =  -77.6224345459     A.U. after    5 cycles
            NFock=  5  Conv=0.50D-08     -V/T= 2.0152
 Calling FoFJK, ICntrl=      2127 FMM=F ISym2X=0 I1Cent= 0 IOpClX= 0 NMat=1 NMatS=1 NMatT=0.
 ***** Axes restored to original set *****
 -------------------------------------------------------------------
 Center     Atomic                   Forces (Hartrees/Bohr)
 Number     Number              X              Y              Z
 -------------------------------------------------------------------
      1        6          -0.000006214    0.000001893   -0.000002648
      2        6           0.000006217   -0.000001922    0.000002672
      3        1          -0.000000066   -0.000000078    0.000000142
      4        1           0.000000058    0.000000093   -0.000000154
      5        1           0.000000082    0.000000095   -0.000000159
      6        1          -0.000000077   -0.000000081    0.000000148
 -------------------------------------------------------------------
 Cartesian Forces:  Max     0.000006217 RMS     0.000002343

 GradGradGradGradGradGradGradGradGradGradGradGradGradGradGradGradGradGrad
 Berny optimization.
 Using GEDIIS/GDIIS optimizer.
 FormGI is forming the generalized inverse of G from B-inverse, IUseBI=4.
 Internal  Forces:  Max     0.000007030 RMS     0.000001818
 Search for a local minimum.
 Step number   5 out of a maximum of   25
 All quantities printed in internal units (Hartrees-Bohrs-Radians)
 Mixed Optimization -- En-DIIS/RFO-DIIS
 Swapping is turned off.
 Update second derivatives using D2CorX and points    1    2    3    4    5
 DE= -6.61D-09 DEPred=-6.95D-09 R= 9.52D-01
 Trust test= 9.52D-01 RLast= 1.78D-04 DXMaxT set to 3.02D-01
 The second derivative matrix:
                          R1        R2        R3        R4        R5
           R1           0.74205
           R2          -0.00378   0.36789
           R3          -0.00122   0.01535   0.36988
           R4          -0.00356   0.01521   0.01590   0.36926
           R5          -0.00156   0.01495   0.01565   0.01548   0.36880
           A1           0.01095  -0.00148  -0.00136  -0.00145  -0.00139
           A2           0.01268  -0.00143  -0.00128  -0.00139  -0.00132
           A3          -0.02363   0.00291   0.00264   0.00283   0.00272
           A4           0.01199  -0.00146  -0.00133  -0.00142  -0.00137
           A5           0.01143  -0.00145  -0.00132  -0.00142  -0.00135
           A6          -0.02342   0.00291   0.00265   0.00284   0.00272
           D1           0.00004  -0.00001  -0.00001  -0.00001  -0.00001
           D2           0.00000   0.00000   0.00000   0.00000   0.00000
           D3           0.00000   0.00000   0.00000   0.00000   0.00000
           D4          -0.00004   0.00001   0.00001   0.00001   0.00001
                          A1        A2        A3        A4        A5
           A1           0.15819
           A2          -0.00207   0.15762
           A3           0.00388   0.00445   0.15167
           A4          -0.00209  -0.00240   0.00449   0.15758
           A5          -0.00177  -0.00203   0.00380  -0.00205   0.15827
           A6           0.00386   0.00443  -0.00829   0.00447   0.00378
           D1           0.00000   0.00000   0.00000   0.00000   0.00000
           D2           0.00000   0.00000   0.00000   0.00000   0.00000
           D3           0.00000   0.00000   0.00000   0.00000   0.00000
           D4           0.00000   0.00000   0.00000   0.00000   0.00000
                          A6        D1        D2        D3        D4
           A6           0.15175
           D1           0.00000   0.03011
           D2           0.00000   0.00000   0.03011
           D3           0.00000   0.00000   0.00000   0.03011
           D4           0.00000   0.00000   0.00000   0.00000   0.03011
 ITU=  0  0  1  1  0
     Eigenvalues ---    0.03011   0.03011   0.03011   0.13205   0.15999
     Eigenvalues ---    0.16000   0.16000   0.35329   0.35354   0.35373
     Eigenvalues ---    0.41546   0.74489
 En-DIIS/RFO-DIIS IScMMF=        0 using points:     5    4    3
 RFO step:  Lambda= 0.00000000D+00.
 DidBck=F Rises=F RFO-DIIS coefs:    0.89913    0.08847    0.01240
 Iteration  1 RMS(Cart)=  0.00000242 RMS(Int)=  0.00000000
 Iteration  2 RMS(Cart)=  0.00000000 RMS(Int)=  0.00000000
 Variable       Old X    -DE/DX   Delta X   Delta X   Delta X     New X
                                 (Linear)    (Quad)   (Total)
    R1        2.51862   0.00001   0.00001   0.00000   0.00001   2.51863
    R2        2.07332   0.00000   0.00000   0.00000   0.00000   2.07332
    R3        2.07332   0.00000   0.00000   0.00000   0.00000   2.07332
    R4        2.07332   0.00000   0.00000   0.00000   0.00000   2.07332
    R5        2.07332   0.00000   0.00000   0.00000   0.00000   2.07332
    A1        2.12975   0.00000   0.00000   0.00000   0.00000   2.12975
    A2        2.12975   0.00000   0.00000   0.00000   0.00000   2.12975
    A3        2.02369   0.00000   0.00000   0.00000   0.00000   2.02369
    A4        2.12975   0.00000   0.00000   0.00000   0.00000   2.12975
    A5        2.12975   0.00000   0.00000   0.00000   0.00000   2.12975
    A6        2.02369   0.00000   0.00000   0.00000   0.00000   2.02369
    D1        3.14159   0.00000   0.00000   0.00000   0.00000  -3.14159
    D2        0.00000   0.00000   0.00000   0.00000   0.00000   0.00000
    D3        0.00000   0.00000   0.00000   0.00000   0.00000   0.00000
    D4       -3.14159   0.00000   0.00000   0.00000   0.00000   3.14159
         Item               Value     Threshold  Converged?
 Maximum Force            0.000007     0.000015     YES
 RMS     Force            0.000002     0.000010     YES
 Maximum Displacement     0.000004     0.000060     YES
 RMS     Displacement     0.000002     0.000040     YES
 Predicted change in Energy=-3.487347D-11
 Optimization completed.
    -- Stationary point found.
                           ----------------------------
                           !   Optimized Parameters   !
                           ! (Angstroms and Degrees)  !
 --------------------------                            --------------------------
 ! Name  Definition              Value          Derivative Info.                !
 --------------------------------------------------------------------------------
 ! R1    R(1,2)                  1.3328         -DE/DX =    0.0                 !
 ! R2    R(1,3)                  1.0972         -DE/DX =    0.0                 !
 ! R3    R(1,4)                  1.0972         -DE/DX =    0.0                 !
 ! R4    R(2,5)                  1.0972         -DE/DX =    0.0                 !
 ! R5    R(2,6)                  1.0972         -DE/DX =    0.0                 !
 ! A1    A(2,1,3)              122.0256         -DE/DX =    0.0                 !
 ! A2    A(2,1,4)              122.0256         -DE/DX =    0.0                 !
 ! A3    A(3,1,4)              115.9488         -DE/DX =    0.0                 !
 ! A4    A(1,2,5)              122.0256         -DE/DX =    0.0                 !
 ! A5    A(1,2,6)              122.0256         -DE/DX =    0.0                 !
 ! A6    A(5,2,6)              115.9487         -DE/DX =    0.0                 !
 ! D1    D(3,1,2,5)           -180.0            -DE/DX =    0.0                 !
 ! D2    D(3,1,2,6)              0.0            -DE/DX =    0.0                 !
 ! D3    D(4,1,2,5)              0.0            -DE/DX =    0.0                 !
 ! D4    D(4,1,2,6)            180.0            -DE/DX =    0.0                 !
 --------------------------------------------------------------------------------
 GradGradGradGradGradGradGradGradGradGradGradGradGradGradGradGradGradGrad

                          Input orientation:                          
 ---------------------------------------------------------------------
 Center     Atomic      Atomic             Coordinates (Angstroms)
 Number     Number       Type             X           Y           Z
 ---------------------------------------------------------------------
      1          6           0        1.349858    1.024673   -0.576746
      2          6           0        2.533712    0.667221   -0.079684
      3          1           0        0.407687    0.771998   -0.074538
      4          1           0        1.258433    1.589430   -1.512926
      5          1           0        3.475883    0.919895   -0.581892
      6          1           0        2.625137    0.102463    0.856496
 ---------------------------------------------------------------------
                    Distance matrix (angstroms):
                    1          2          3          4          5
     1  C    0.000000
     2  C    1.332799   0.000000
     3  H    1.097152   2.128612   0.000000
     4  H    1.097152   2.128612   1.860355   0.000000
     5  H    2.128612   1.097152   3.113376   2.496435   0.000000
     6  H    2.128612   1.097152   2.496435   3.113376   1.860355
                    6
     6  H    0.000000
 Stoichiometry    C2H4
 Framework group  C1[X(C2H4)]
 Deg. of freedom    12
 Full point group                 C1      NOp   1
 Largest Abelian subgroup         C1      NOp   1
 Largest concise Abelian subgroup C1      NOp   1
                         Standard orientation:                         
 ---------------------------------------------------------------------
 Center     Atomic      Atomic             Coordinates (Angstroms)
 Number     Number       Type             X           Y           Z
 ---------------------------------------------------------------------
      1          6           0       -0.666399    0.000000    0.000000
      2          6           0        0.666399    0.000000    0.000000
      3          1           0       -1.248218   -0.930178    0.000000
      4          1           0       -1.248217    0.930178    0.000000
      5          1           0        1.248218    0.930177    0.000000
      6          1           0        1.248217   -0.930178    0.000000
 ---------------------------------------------------------------------
 Rotational constants (GHZ):    144.8906219     29.8351131     24.7406491

 **********************************************************************

            Population analysis using the SCF density.

 **********************************************************************

 Orbital symmetries:
       Occupied  (A) (A) (A) (A) (A) (A) (A) (A)
       Virtual   (A) (A) (A) (A) (A) (A)
 The electronic state is 1-A.
 Alpha  occ. eigenvalues --   -9.99314  -9.99284  -0.71544  -0.54076  -0.42952
 Alpha  occ. eigenvalues --   -0.37618  -0.31548  -0.21548
 Alpha virt. eigenvalues --    0.11740   0.37484   0.43288   0.43304   0.63121
 Alpha virt. eigenvalues --    0.69187
          Condensed to atoms (all electrons):
               1          2          3          4          5          6
     1  C    4.827393   0.602105   0.387185   0.387185  -0.024541  -0.024541
     2  C    0.602105   4.827393  -0.024541  -0.024541   0.387185   0.387185
     3  H    0.387185  -0.024541   0.586886  -0.024171   0.002043  -0.004795
     4  H    0.387185  -0.024541  -0.024171   0.586886  -0.004795   0.002043
     5  H   -0.024541   0.387185   0.002043  -0.004795   0.586886  -0.024171
     6  H   -0.024541   0.387185  -0.004795   0.002043  -0.024171   0.586887
 Mulliken charges:
               1
     1  C   -0.154786
     2  C   -0.154786
     3  H    0.077393
     4  H    0.077393
     5  H    0.077393
     6  H    0.077393
 Sum of Mulliken charges =   0.00000
 Mulliken charges with hydrogens summed into heavy atoms:
               1
     1  C    0.000000
     2  C    0.000000
 Electronic spatial extent (au):  <R**2>=             80.9604
 Charge=              0.0000 electrons
 Dipole moment (field-independent basis, Debye):
    X=              0.0000    Y=              0.0000    Z=              0.0000  Tot=              0.0000
 Quadrupole moment (field-independent basis, Debye-Ang):
   XX=            -11.6560   YY=            -11.5886   ZZ=            -13.4953
   XY=              0.0000   XZ=              0.0000   YZ=              0.0000
 Traceless Quadrupole moment (field-independent basis, Debye-Ang):
   XX=              0.5906   YY=              0.6580   ZZ=             -1.2486
   XY=              0.0000   XZ=              0.0000   YZ=              0.0000
 Octapole moment (field-independent basis, Debye-Ang**2):
  XXX=              0.0000  YYY=              0.0000  ZZZ=              0.0000  XYY=              0.0000
  XXY=              0.0000  XXZ=              0.0000  XZZ=              0.0000  YZZ=              0.0000
  YYZ=              0.0000  XYZ=              0.0000
 Hexadecapole moment (field-independent basis, Debye-Ang**3):
 XXXX=            -63.3123 YYYY=            -23.7178 ZZZZ=            -10.9045 XXXY=              0.0000
 XXXZ=              0.0000 YYYX=              0.0000 YYYZ=              0.0000 ZZZX=              0.0000
 ZZZY=              0.0000 XXYY=            -11.9556 XXZZ=            -12.9943 YYZZ=             -6.3302
 XXYZ=              0.0000 YYXZ=              0.0000 ZZXY=              0.0000
 N-N= 3.316840241921D+01 E-N=-2.457268003210D+02  KE= 7.646043704776D+01
 1\1\GINC-MW\FOpt\RB3LYP\STO-3G\C2H4\BING\25-Feb-2019\0\\# opt(tight) b
 3lyp/sto-3g\\c02h04\\0,1\C,1.3498578983,1.0246725341,-0.5767456083\C,2
 .5337120586,0.6672208667,-0.079684374\H,0.4076867562,0.7719981107,-0.0
 7453849\H,1.2584329825,1.5894298944,-1.5129258007\H,3.4758831942,0.919
 8951747,-0.5818915002\H,2.6251371103,0.1024634196,0.8564957731\\Versio
 n=ES64L-G09RevD.01\State=1-A\HF=-77.6224345\RMSD=5.035e-09\RMSF=2.343e
 -06\Dipole=0.,0.,0.\Quadrupole=0.4470014,-0.5562883,0.1092869,-0.04091
 74,-0.0482284,-0.6183644\PG=C01 [X(C2H4)]\\@


 THE MORE POWERFUL THE METHOD, THE MORE CATASTROPHIC THE ERRORS.
     -- M.D. KAMEN
 Job cpu time:       0 days  0 hours  1 minutes 10.5 seconds.
 File lengths (MBytes):  RWF=      5 Int=      0 D2E=      0 Chk=      1 Scr=      1
 Normal termination of Gaussian 09 at Mon Feb 25 22:30:35 2019.
