 Entering Gaussian System, Link 0=g09
 Input=c02h06.com
 Output=c02h06.out
 Initial command:
 /home/bing/src/g09_d.01/g09/l1.exe "/data/trash/Gau-6545.inp" -scrdir="/data/trash/"
 Entering Link 1 = /home/bing/src/g09_d.01/g09/l1.exe PID=      6547.
  
 Copyright (c) 1988,1990,1992,1993,1995,1998,2003,2009,2013,
            Gaussian, Inc.  All Rights Reserved.
  
 This is part of the Gaussian(R) 09 program.  It is based on
 the Gaussian(R) 03 system (copyright 2003, Gaussian, Inc.),
 the Gaussian(R) 98 system (copyright 1998, Gaussian, Inc.),
 the Gaussian(R) 94 system (copyright 1995, Gaussian, Inc.),
 the Gaussian 92(TM) system (copyright 1992, Gaussian, Inc.),
 the Gaussian 90(TM) system (copyright 1990, Gaussian, Inc.),
 the Gaussian 88(TM) system (copyright 1988, Gaussian, Inc.),
 the Gaussian 86(TM) system (copyright 1986, Carnegie Mellon
 University), and the Gaussian 82(TM) system (copyright 1983,
 Carnegie Mellon University). Gaussian is a federally registered
 trademark of Gaussian, Inc.
  
 This software contains proprietary and confidential information,
 including trade secrets, belonging to Gaussian, Inc.
  
 This software is provided under written license and may be
 used, copied, transmitted, or stored only in accord with that
 written license.
  
 The following legend is applicable only to US Government
 contracts under FAR:
  
                    RESTRICTED RIGHTS LEGEND
  
 Use, reproduction and disclosure by the US Government is
 subject to restrictions as set forth in subparagraphs (a)
 and (c) of the Commercial Computer Software - Restricted
 Rights clause in FAR 52.227-19.
  
 Gaussian, Inc.
 340 Quinnipiac St., Bldg. 40, Wallingford CT 06492
  
  
 ---------------------------------------------------------------
 Warning -- This program may not be used in any manner that
 competes with the business of Gaussian, Inc. or will provide
 assistance to any competitor of Gaussian, Inc.  The licensee
 of this program is prohibited from giving any competitor of
 Gaussian, Inc. access to this program.  By using this program,
 the user acknowledges that Gaussian, Inc. is engaged in the
 business of creating and licensing software in the field of
 computational chemistry and represents and warrants to the
 licensee that it is not a competitor of Gaussian, Inc. and that
 it will not use this program in any manner prohibited above.
 ---------------------------------------------------------------
  

 Cite this work as:
 Gaussian 09, Revision D.01,
 M. J. Frisch, G. W. Trucks, H. B. Schlegel, G. E. Scuseria, 
 M. A. Robb, J. R. Cheeseman, G. Scalmani, V. Barone, B. Mennucci, 
 G. A. Petersson, H. Nakatsuji, M. Caricato, X. Li, H. P. Hratchian, 
 A. F. Izmaylov, J. Bloino, G. Zheng, J. L. Sonnenberg, M. Hada, 
 M. Ehara, K. Toyota, R. Fukuda, J. Hasegawa, M. Ishida, T. Nakajima, 
 Y. Honda, O. Kitao, H. Nakai, T. Vreven, J. A. Montgomery, Jr., 
 J. E. Peralta, F. Ogliaro, M. Bearpark, J. J. Heyd, E. Brothers, 
 K. N. Kudin, V. N. Staroverov, T. Keith, R. Kobayashi, J. Normand, 
 K. Raghavachari, A. Rendell, J. C. Burant, S. S. Iyengar, J. Tomasi, 
 M. Cossi, N. Rega, J. M. Millam, M. Klene, J. E. Knox, J. B. Cross, 
 V. Bakken, C. Adamo, J. Jaramillo, R. Gomperts, R. E. Stratmann, 
 O. Yazyev, A. J. Austin, R. Cammi, C. Pomelli, J. W. Ochterski, 
 R. L. Martin, K. Morokuma, V. G. Zakrzewski, G. A. Voth, 
 P. Salvador, J. J. Dannenberg, S. Dapprich, A. D. Daniels, 
 O. Farkas, J. B. Foresman, J. V. Ortiz, J. Cioslowski, 
 and D. J. Fox, Gaussian, Inc., Wallingford CT, 2013.
 
 ******************************************
 Gaussian 09:  ES64L-G09RevD.01 24-Apr-2013
                25-Feb-2019 
 ******************************************
 %nproc=6
 Will use up to    6 processors via shared memory.
 -------------------------
 # opt(tight) b3lyp/sto-3g
 -------------------------
 1/7=10,14=-1,18=20,19=15,26=3,38=1/1,3;
 2/9=110,12=2,17=6,18=5,40=1/2;
 3/6=3,11=2,16=1,25=1,30=1,71=1,74=-5/1,2,3;
 4//1;
 5/5=2,38=5/2;
 6/7=2,8=2,9=2,10=2,28=1/1;
 7//1,2,3,16;
 1/7=10,14=-1,18=20,19=15,26=3/3(2);
 2/9=110/2;
 99//99;
 2/9=110/2;
 3/6=3,11=2,16=1,25=1,30=1,71=1,74=-5/1,2,3;
 4/5=5,16=3,69=1/1;
 5/5=2,38=5/2;
 7//1,2,3,16;
 1/7=10,14=-1,18=20,19=15,26=3/3(-5);
 2/9=110/2;
 6/7=2,8=2,9=2,10=2,19=2,28=1/1;
 99/9=1/99;
 ------
 c02h06
 ------
 Symbolic Z-matrix:
 Charge =  0 Multiplicity = 1
 C                     1.02536   0.17111  -0.05697 
 C                     2.00858  -0.82442   0.53478 
 H                     1.38999   1.2063    0.11147 
 H                     0.03273   0.05208   0.42617 
 H                     0.92199  -0.00482  -1.14845 
 H                     2.11163  -0.64837   1.62625 
 H                     1.64362  -1.85949   0.36634 
 H                     3.00145  -0.70582   0.05197 
 

 GradGradGradGradGradGradGradGradGradGradGradGradGradGradGradGradGradGrad
 Berny optimization.
 Initialization pass.
                           ----------------------------
                           !    Initial Parameters    !
                           ! (Angstroms and Degrees)  !
 --------------------------                            --------------------------
 ! Name  Definition              Value          Derivative Info.                !
 --------------------------------------------------------------------------------
 ! R1    R(1,2)                  1.5192         estimate D2E/DX2                !
 ! R2    R(1,3)                  1.1104         estimate D2E/DX2                !
 ! R3    R(1,4)                  1.1104         estimate D2E/DX2                !
 ! R4    R(1,5)                  1.1104         estimate D2E/DX2                !
 ! R5    R(2,6)                  1.1104         estimate D2E/DX2                !
 ! R6    R(2,7)                  1.1104         estimate D2E/DX2                !
 ! R7    R(2,8)                  1.1104         estimate D2E/DX2                !
 ! A1    A(2,1,3)              109.8348         estimate D2E/DX2                !
 ! A2    A(2,1,4)              109.8062         estimate D2E/DX2                !
 ! A3    A(2,1,5)              109.8345         estimate D2E/DX2                !
 ! A4    A(3,1,4)              109.117          estimate D2E/DX2                !
 ! A5    A(3,1,5)              109.1107         estimate D2E/DX2                !
 ! A6    A(4,1,5)              109.1172         estimate D2E/DX2                !
 ! A7    A(1,2,6)              109.819          estimate D2E/DX2                !
 ! A8    A(1,2,7)              109.8188         estimate D2E/DX2                !
 ! A9    A(1,2,8)              109.8368         estimate D2E/DX2                !
 ! A10   A(6,2,7)              109.112          estimate D2E/DX2                !
 ! A11   A(6,2,8)              109.1166         estimate D2E/DX2                !
 ! A12   A(7,2,8)              109.1172         estimate D2E/DX2                !
 ! D1    D(3,1,2,6)             60.0023         estimate D2E/DX2                !
 ! D2    D(3,1,2,7)            179.9909         estimate D2E/DX2                !
 ! D3    D(3,1,2,8)            -60.0031         estimate D2E/DX2                !
 ! D4    D(4,1,2,6)            -59.9943         estimate D2E/DX2                !
 ! D5    D(4,1,2,7)             59.9942         estimate D2E/DX2                !
 ! D6    D(4,1,2,8)           -179.9998         estimate D2E/DX2                !
 ! D7    D(5,1,2,6)           -179.9911         estimate D2E/DX2                !
 ! D8    D(5,1,2,7)            -60.0026         estimate D2E/DX2                !
 ! D9    D(5,1,2,8)             60.0034         estimate D2E/DX2                !
 --------------------------------------------------------------------------------
 Trust Radius=3.00D-01 FncErr=1.00D-07 GrdErr=1.00D-06
 Number of steps in this run=     38 maximum allowed number of steps=    100.
 GradGradGradGradGradGradGradGradGradGradGradGradGradGradGradGradGradGrad

                          Input orientation:                          
 ---------------------------------------------------------------------
 Center     Atomic      Atomic             Coordinates (Angstroms)
 Number     Number       Type             X           Y           Z
 ---------------------------------------------------------------------
      1          6           0        1.025360    0.171110   -0.056970
      2          6           0        2.008580   -0.824420    0.534780
      3          1           0        1.389990    1.206300    0.111470
      4          1           0        0.032730    0.052080    0.426170
      5          1           0        0.921990   -0.004820   -1.148450
      6          1           0        2.111630   -0.648370    1.626250
      7          1           0        1.643620   -1.859490    0.366340
      8          1           0        3.001450   -0.705820    0.051970
 ---------------------------------------------------------------------
                    Distance matrix (angstroms):
                    1          2          3          4          5
     1  C    0.000000
     2  C    1.519200   0.000000
     3  H    1.110381   2.164641   0.000000
     4  H    1.110363   2.164262   1.809258   0.000000
     5  H    1.110390   2.164644   1.809208   1.809268   0.000000
     6  H    2.164431   1.110369   2.501024   2.500529   3.086804
     7  H    2.164434   1.110377   3.086803   2.500529   2.501028
     8  H    2.164672   1.110388   2.501309   3.086703   2.501312
                    6          7          8
     6  H    0.000000
     7  H    1.809204   0.000000
     8  H    1.809264   1.809278   0.000000
 Stoichiometry    C2H6
 Framework group  C1[X(C2H6)]
 Deg. of freedom    18
 Full point group                 C1      NOp   1
 Largest Abelian subgroup         C1      NOp   1
 Largest concise Abelian subgroup C1      NOp   1
                         Standard orientation:                         
 ---------------------------------------------------------------------
 Center     Atomic      Atomic             Coordinates (Angstroms)
 Number     Number       Type             X           Y           Z
 ---------------------------------------------------------------------
      1          6           0       -0.759599   -0.000016   -0.000001
      2          6           0        0.759601   -0.000045    0.000000
      3          1           0       -1.136371   -0.533831   -0.897793
      4          1           0       -1.135815    1.044583   -0.013472
      5          1           0       -1.136371   -0.510509    0.911265
      6          1           0        1.136083    0.510629   -0.911258
      7          1           0        1.136080    0.533964    0.897795
      8          1           0        1.136382   -1.044467    0.013465
 ---------------------------------------------------------------------
 Rotational constants (GHZ):     76.5960820     20.2534428     20.2532023
 Standard basis: STO-3G (5D, 7F)
 There are    16 symmetry adapted cartesian basis functions of A   symmetry.
 There are    16 symmetry adapted basis functions of A   symmetry.
    16 basis functions,    48 primitive gaussians,    16 cartesian basis functions
     9 alpha electrons        9 beta electrons
       nuclear repulsion energy        42.0363802050 Hartrees.
 NAtoms=    8 NActive=    8 NUniq=    8 SFac= 1.00D+00 NAtFMM=   60 NAOKFM=F Big=F
 Integral buffers will be    131072 words long.
 Raffenetti 2 integral format.
 Two-electron integral symmetry is turned on.
 One-electron integrals computed using PRISM.
 NBasis=    16 RedAO= T EigKep=  2.12D-01  NBF=    16
 NBsUse=    16 1.00D-06 EigRej= -1.00D+00 NBFU=    16
 ExpMin= 1.69D-01 ExpMax= 7.16D+01 ExpMxC= 7.16D+01 IAcc=1 IRadAn=         1 AccDes= 0.00D+00
 Harris functional with IExCor=  402 and IRadAn=       1 diagonalized for initial guess.
 HarFok:  IExCor=  402 AccDes= 0.00D+00 IRadAn=         1 IDoV= 1 UseB2=F ITyADJ=14
 ICtDFT=  3500011 ScaDFX=  1.000000  1.000000  1.000000  1.000000
 FoFCou: FMM=F IPFlag=           0 FMFlag=      100000 FMFlg1=           0
         NFxFlg=           0 DoJE=T BraDBF=F KetDBF=T FulRan=T
         wScrn=  0.000000 ICntrl=     500 IOpCl=  0 I1Cent=   200000004 NGrid=           0
         NMat0=    1 NMatS0=      1 NMatT0=    0 NMatD0=    1 NMtDS0=    0 NMtDT0=    0
 Petite list used in FoFCou.
 Keep R1 ints in memory in canonical form, NReq=888705.
 Requested convergence on RMS density matrix=1.00D-08 within 128 cycles.
 Requested convergence on MAX density matrix=1.00D-06.
 Requested convergence on             energy=1.00D-06.
 No special actions if energy rises.
 Integral accuracy reduced to 1.0D-05 until final iterations.
 Initial convergence to 1.0D-05 achieved.  Increase integral accuracy.
 SCF Done:  E(RB3LYP) =  -78.8843291371     A.U. after    8 cycles
            NFock=  8  Conv=0.41D-08     -V/T= 2.0176

 **********************************************************************

            Population analysis using the SCF density.

 **********************************************************************

 Orbital symmetries:
       Occupied  (A) (A) (A) (A) (A) (A) (A) (A) (A)
       Virtual   (A) (A) (A) (A) (A) (A) (A)
 The electronic state is 1-A.
 Alpha  occ. eigenvalues --  -10.00369 -10.00271  -0.71691  -0.57430  -0.40306
 Alpha  occ. eigenvalues --   -0.40304  -0.32284  -0.30586  -0.30585
 Alpha virt. eigenvalues --    0.39813   0.39815   0.44016   0.44916   0.49913
 Alpha virt. eigenvalues --    0.50580   0.50581
          Condensed to atoms (all electrons):
               1          2          3          4          5          6
     1  C    4.772200   0.364642   0.378828   0.378831   0.378826  -0.021212
     2  C    0.364642   4.772199  -0.021202  -0.021222  -0.021202   0.378830
     3  H    0.378828  -0.021202   0.615633  -0.020038  -0.020045  -0.002548
     4  H    0.378831  -0.021222  -0.020038   0.615647  -0.020038  -0.002551
     5  H    0.378826  -0.021202  -0.020045  -0.020038   0.615636   0.002019
     6  H   -0.021212   0.378830  -0.002548  -0.002551   0.002019   0.615641
     7  H   -0.021212   0.378829   0.002019  -0.002551  -0.002548  -0.020041
     8  H   -0.021202   0.378827  -0.002546   0.002019  -0.002546  -0.020040
               7          8
     1  C   -0.021212  -0.021202
     2  C    0.378829   0.378827
     3  H    0.002019  -0.002546
     4  H   -0.002551   0.002019
     5  H   -0.002548  -0.002546
     6  H   -0.020041  -0.020040
     7  H    0.615643  -0.020040
     8  H   -0.020040   0.615631
 Mulliken charges:
               1
     1  C   -0.209701
     2  C   -0.209701
     3  H    0.069900
     4  H    0.069903
     5  H    0.069898
     6  H    0.069903
     7  H    0.069902
     8  H    0.069897
 Sum of Mulliken charges =   0.00000
 Mulliken charges with hydrogens summed into heavy atoms:
               1
     1  C   -0.000001
     2  C    0.000001
 Electronic spatial extent (au):  <R**2>=            106.9167
 Charge=              0.0000 electrons
 Dipole moment (field-independent basis, Debye):
    X=              0.0000    Y=              0.0002    Z=              0.0000  Tot=              0.0002
 Quadrupole moment (field-independent basis, Debye-Ang):
   XX=            -14.4033   YY=            -13.7488   ZZ=            -13.7491
   XY=              0.0002   XZ=              0.0000   YZ=              0.0000
 Traceless Quadrupole moment (field-independent basis, Debye-Ang):
   XX=             -0.4363   YY=              0.2183   ZZ=              0.2180
   XY=              0.0002   XZ=              0.0000   YZ=              0.0000
 Octapole moment (field-independent basis, Debye-Ang**2):
  XXX=              0.0000  YYY=              0.0006  ZZZ=              0.0000  XYY=              0.0004
  XXY=             -0.0011  XXZ=              0.0000  XZZ=             -0.0004  YZZ=              0.0002
  YYZ=              0.0000  XYZ=              0.0000
 Hexadecapole moment (field-independent basis, Debye-Ang**3):
 XXXX=            -83.4476 YYYY=            -25.1512 ZZZZ=            -25.1506 XXXY=              0.0009
 XXXZ=              0.0000 YYYX=             -1.3743 YYYZ=              0.0000 ZZZX=             -0.0532
 ZZZY=              0.0000 XXYY=            -16.7423 XXZZ=            -16.7419 YYZZ=             -8.3837
 XXYZ=              0.0000 YYXZ=              0.0532 ZZXY=              1.3745
 N-N= 4.203638020502D+01 E-N=-2.656810165653D+02  KE= 7.752346370784D+01
 Calling FoFJK, ICntrl=      2127 FMM=F ISym2X=0 I1Cent= 0 IOpClX= 0 NMat=1 NMatS=1 NMatT=0.
 ***** Axes restored to original set *****
 -------------------------------------------------------------------
 Center     Atomic                   Forces (Hartrees/Bohr)
 Number     Number              X              Y              Z
 -------------------------------------------------------------------
      1        6          -0.014326864    0.014482736   -0.008610463
      2        6           0.014330480   -0.014483687    0.008596855
      3        1          -0.005636595   -0.005497060   -0.002981029
      4        1           0.005160511    0.003743849   -0.005513862
      5        1          -0.001905008    0.004163852    0.007073140
      6        1           0.001921167   -0.004178144   -0.007053993
      7        1           0.005654427    0.005483791    0.002990599
      8        1          -0.005198118   -0.003715338    0.005498752
 -------------------------------------------------------------------
 Cartesian Forces:  Max     0.014483687 RMS     0.007648723

 GradGradGradGradGradGradGradGradGradGradGradGradGradGradGradGradGradGrad
 Berny optimization.
 FormGI is forming the generalized inverse of G from B-inverse, IUseBI=4.
 Internal  Forces:  Max     0.025791216 RMS     0.006553430
 Search for a local minimum.
 Step number   1 out of a maximum of   38
 All quantities printed in internal units (Hartrees-Bohrs-Radians)
 Mixed Optimization -- RFO/linear search
 Second derivative matrix not updated -- first step.
 ITU=  0
     Eigenvalues ---    0.00512   0.05833   0.05834   0.05836   0.05836
     Eigenvalues ---    0.16000   0.16000   0.16000   0.16000   0.16000
     Eigenvalues ---    0.16000   0.30444   0.32559   0.32559   0.32560
     Eigenvalues ---    0.32560   0.32561   0.32562
 RFO step:  Lambda=-4.41222306D-03 EMin= 5.11964015D-03
 Linear search not attempted -- first point.
 Iteration  1 RMS(Cart)=  0.04389362 RMS(Int)=  0.00052086
 Iteration  2 RMS(Cart)=  0.00046437 RMS(Int)=  0.00020383
 Iteration  3 RMS(Cart)=  0.00000021 RMS(Int)=  0.00020383
 Variable       Old X    -DE/DX   Delta X   Delta X   Delta X     New X
                                 (Linear)    (Quad)   (Total)
    R1        2.87087   0.02579   0.00000   0.08351   0.08351   2.95438
    R2        2.09832  -0.00743   0.00000  -0.02251  -0.02251   2.07581
    R3        2.09828  -0.00741   0.00000  -0.02246  -0.02246   2.07582
    R4        2.09833  -0.00743   0.00000  -0.02253  -0.02253   2.07580
    R5        2.09829  -0.00742   0.00000  -0.02248  -0.02248   2.07582
    R6        2.09831  -0.00742   0.00000  -0.02250  -0.02250   2.07581
    R7        2.09833  -0.00744   0.00000  -0.02253  -0.02253   2.07580
    A1        1.91698   0.00409   0.00000   0.02487   0.02455   1.94153
    A2        1.91648   0.00418   0.00000   0.02544   0.02512   1.94160
    A3        1.91697   0.00409   0.00000   0.02488   0.02456   1.94154
    A4        1.90445  -0.00418   0.00000  -0.02541  -0.02572   1.87873
    A5        1.90434  -0.00416   0.00000  -0.02535  -0.02564   1.87870
    A6        1.90445  -0.00418   0.00000  -0.02541  -0.02571   1.87874
    A7        1.91670   0.00413   0.00000   0.02514   0.02481   1.94152
    A8        1.91670   0.00413   0.00000   0.02513   0.02481   1.94150
    A9        1.91701   0.00410   0.00000   0.02495   0.02463   1.94164
   A10        1.90436  -0.00418   0.00000  -0.02537  -0.02568   1.87869
   A11        1.90444  -0.00417   0.00000  -0.02540  -0.02570   1.87875
   A12        1.90445  -0.00417   0.00000  -0.02542  -0.02572   1.87874
    D1        1.04724   0.00000   0.00000   0.00004   0.00004   1.04728
    D2        3.14143   0.00001   0.00000   0.00013   0.00014   3.14157
    D3       -1.04725   0.00000   0.00000   0.00007   0.00007  -1.04718
    D4       -1.04710   0.00000   0.00000  -0.00004  -0.00004  -1.04714
    D5        1.04710   0.00000   0.00000   0.00006   0.00006   1.04716
    D6       -3.14159   0.00000   0.00000   0.00000   0.00000   3.14159
    D7       -3.14144  -0.00001   0.00000  -0.00013  -0.00013  -3.14157
    D8       -1.04724   0.00000   0.00000  -0.00004  -0.00004  -1.04728
    D9        1.04726  -0.00001   0.00000  -0.00010  -0.00010   1.04716
         Item               Value     Threshold  Converged?
 Maximum Force            0.025791     0.000015     NO 
 RMS     Force            0.006553     0.000010     NO 
 Maximum Displacement     0.076236     0.000060     NO 
 RMS     Displacement     0.043616     0.000040     NO 
 Predicted change in Energy=-2.244947D-03
 GradGradGradGradGradGradGradGradGradGradGradGradGradGradGradGradGradGrad

                          Input orientation:                          
 ---------------------------------------------------------------------
 Center     Atomic      Atomic             Coordinates (Angstroms)
 Number     Number       Type             X           Y           Z
 ---------------------------------------------------------------------
      1          6           0        1.010985    0.185552   -0.065520
      2          6           0        2.022866   -0.838902    0.543398
      3          1           0        1.349859    1.219053    0.088346
      4          1           0        0.019217    0.088075    0.396587
      5          1           0        0.891140    0.031964   -1.146575
      6          1           0        2.142681   -0.685312    1.624463
      7          1           0        1.683962   -1.872398    0.389539
      8          1           0        3.014639   -0.741461    0.081322
 ---------------------------------------------------------------------
                    Distance matrix (angstroms):
                    1          2          3          4          5
     1  C    0.000000
     2  C    1.563391   0.000000
     3  H    1.098469   2.212508   0.000000
     4  H    1.098476   2.212566   1.773339   0.000000
     5  H    1.098468   2.212515   1.773311   1.773343   0.000000
     6  H    2.212506   1.098475   2.571931   2.571946   3.124019
     7  H    2.212495   1.098472   3.124006   2.571941   2.571927
     8  H    2.212587   1.098465   2.571995   3.124112   2.571996
                    6          7          8
     6  H    0.000000
     7  H    1.773312   0.000000
     8  H    1.773344   1.773335   0.000000
 Stoichiometry    C2H6
 Framework group  C1[X(C2H6)]
 Deg. of freedom    18
 Full point group                 C1      NOp   1
 Largest Abelian subgroup         C1      NOp   1
 Largest concise Abelian subgroup C1      NOp   1
                         Standard orientation:                         
 ---------------------------------------------------------------------
 Center     Atomic      Atomic             Coordinates (Angstroms)
 Number     Number       Type             X           Y           Z
 ---------------------------------------------------------------------
      1          6           0       -0.781695    0.000000    0.000001
      2          6           0        0.781695   -0.000008   -0.000001
      3          1           0       -1.179669   -0.424676   -0.931612
      4          1           0       -1.179738    1.019116    0.098046
      5          1           0       -1.179678   -0.594509    0.833548
      6          1           0        1.179661    0.594527   -0.833548
      7          1           0        1.179649    0.424691    0.931613
      8          1           0        1.179776   -1.019098   -0.098043
 ---------------------------------------------------------------------
 Rotational constants (GHZ):     79.7301350     19.2526773     19.2525750
 Standard basis: STO-3G (5D, 7F)
 There are    16 symmetry adapted cartesian basis functions of A   symmetry.
 There are    16 symmetry adapted basis functions of A   symmetry.
    16 basis functions,    48 primitive gaussians,    16 cartesian basis functions
     9 alpha electrons        9 beta electrons
       nuclear repulsion energy        41.6712714336 Hartrees.
 NAtoms=    8 NActive=    8 NUniq=    8 SFac= 1.00D+00 NAtFMM=   60 NAOKFM=F Big=F
 Integral buffers will be    131072 words long.
 Raffenetti 2 integral format.
 Two-electron integral symmetry is turned on.
 One-electron integrals computed using PRISM.
 NBasis=    16 RedAO= T EigKep=  2.15D-01  NBF=    16
 NBsUse=    16 1.00D-06 EigRej= -1.00D+00 NBFU=    16
 Initial guess from the checkpoint file:  "/data/trash/Gau-6547.chk"
 B after Tr=     0.000000    0.000000    0.000000
         Rot=    0.998520   -0.054379    0.000002   -0.000025 Ang=  -6.23 deg.
 ExpMin= 1.69D-01 ExpMax= 7.16D+01 ExpMxC= 7.16D+01 IAcc=1 IRadAn=         1 AccDes= 0.00D+00
 Harris functional with IExCor=  402 and IRadAn=       1 diagonalized for initial guess.
 HarFok:  IExCor=  402 AccDes= 0.00D+00 IRadAn=         1 IDoV= 1 UseB2=F ITyADJ=14
 ICtDFT=  3500011 ScaDFX=  1.000000  1.000000  1.000000  1.000000
 FoFCou: FMM=F IPFlag=           0 FMFlag=      100000 FMFlg1=           0
         NFxFlg=           0 DoJE=T BraDBF=F KetDBF=T FulRan=T
         wScrn=  0.000000 ICntrl=     500 IOpCl=  0 I1Cent=   200000004 NGrid=           0
         NMat0=    1 NMatS0=      1 NMatT0=    0 NMatD0=    1 NMtDS0=    0 NMtDT0=    0
 Petite list used in FoFCou.
 Keep R1 ints in memory in canonical form, NReq=888705.
 Requested convergence on RMS density matrix=1.00D-08 within 128 cycles.
 Requested convergence on MAX density matrix=1.00D-06.
 Requested convergence on             energy=1.00D-06.
 No special actions if energy rises.
 Integral accuracy reduced to 1.0D-05 until final iterations.
 Initial convergence to 1.0D-05 achieved.  Increase integral accuracy.
 SCF Done:  E(RB3LYP) =  -78.8856625502     A.U. after    8 cycles
            NFock=  8  Conv=0.30D-08     -V/T= 2.0176
 Calling FoFJK, ICntrl=      2127 FMM=F ISym2X=0 I1Cent= 0 IOpClX= 0 NMat=1 NMatS=1 NMatT=0.
 ***** Axes restored to original set *****
 -------------------------------------------------------------------
 Center     Atomic                   Forces (Hartrees/Bohr)
 Number     Number              X              Y              Z
 -------------------------------------------------------------------
      1        6           0.003804879   -0.003836239    0.002285123
      2        6          -0.003814853    0.003832729   -0.002274307
      3        1           0.002206075    0.001191088    0.001202070
      4        1          -0.001084586   -0.001640460    0.001970002
      5        1           0.001065184   -0.001769942   -0.001860097
      6        1          -0.001064177    0.001769089    0.001854186
      7        1          -0.002204012   -0.001189386   -0.001202147
      8        1           0.001091490    0.001643121   -0.001974830
 -------------------------------------------------------------------
 Cartesian Forces:  Max     0.003836239 RMS     0.002191326

 GradGradGradGradGradGradGradGradGradGradGradGradGradGradGradGradGradGrad
 Berny optimization.
 Using GEDIIS/GDIIS optimizer.
 FormGI is forming the generalized inverse of G from B-inverse, IUseBI=4.
 Internal  Forces:  Max     0.009247025 RMS     0.002358706
 Search for a local minimum.
 Step number   2 out of a maximum of   38
 All quantities printed in internal units (Hartrees-Bohrs-Radians)
 Mixed Optimization -- RFO/linear search
 Update second derivatives using D2CorX and points    1    2
 DE= -1.33D-03 DEPred=-2.24D-03 R= 5.94D-01
 TightC=F SS=  1.41D+00  RLast= 1.33D-01 DXNew= 5.0454D-01 3.9852D-01
 Trust test= 5.94D-01 RLast= 1.33D-01 DXMaxT set to 3.99D-01
 ITU=  1  0
 Use linear search instead of GDIIS.
     Eigenvalues ---    0.00512   0.05577   0.05577   0.05577   0.05578
     Eigenvalues ---    0.16000   0.16000   0.16000   0.16000   0.16000
     Eigenvalues ---    0.17837   0.31905   0.32559   0.32559   0.32560
     Eigenvalues ---    0.32561   0.32561   0.38898
 RFO step:  Lambda=-1.61146096D-05 EMin= 5.11964015D-03
 Quartic linear search produced a step of -0.28143.
 Iteration  1 RMS(Cart)=  0.01367445 RMS(Int)=  0.00006238
 Iteration  2 RMS(Cart)=  0.00006842 RMS(Int)=  0.00002966
 Iteration  3 RMS(Cart)=  0.00000000 RMS(Int)=  0.00002966
 Variable       Old X    -DE/DX   Delta X   Delta X   Delta X     New X
                                 (Linear)    (Quad)   (Total)
    R1        2.95438  -0.00925  -0.02350   0.00132  -0.02218   2.93220
    R2        2.07581   0.00197   0.00633  -0.00190   0.00444   2.08024
    R3        2.07582   0.00195   0.00632  -0.00193   0.00439   2.08021
    R4        2.07580   0.00196   0.00634  -0.00193   0.00441   2.08022
    R5        2.07582   0.00196   0.00633  -0.00192   0.00440   2.08022
    R6        2.07581   0.00197   0.00633  -0.00190   0.00443   2.08024
    R7        2.07580   0.00196   0.00634  -0.00193   0.00441   2.08021
    A1        1.94153  -0.00191  -0.00691  -0.00202  -0.00888   1.93264
    A2        1.94160  -0.00194  -0.00707  -0.00200  -0.00903   1.93257
    A3        1.94154  -0.00192  -0.00691  -0.00207  -0.00894   1.93260
    A4        1.87873   0.00205   0.00724   0.00218   0.00946   1.88820
    A5        1.87870   0.00204   0.00722   0.00218   0.00943   1.88813
    A6        1.87874   0.00204   0.00724   0.00213   0.00941   1.88815
    A7        1.94152  -0.00192  -0.00698  -0.00199  -0.00893   1.93259
    A8        1.94150  -0.00191  -0.00698  -0.00194  -0.00887   1.93263
    A9        1.94164  -0.00194  -0.00693  -0.00216  -0.00905   1.93259
   A10        1.87869   0.00204   0.00723   0.00217   0.00944   1.88813
   A11        1.87875   0.00204   0.00723   0.00213   0.00941   1.88815
   A12        1.87874   0.00205   0.00724   0.00218   0.00946   1.88820
    D1        1.04728   0.00000  -0.00001  -0.00005  -0.00006   1.04722
    D2        3.14157   0.00000  -0.00004   0.00005   0.00001   3.14158
    D3       -1.04718   0.00000  -0.00002   0.00005   0.00003  -1.04715
    D4       -1.04714  -0.00001   0.00001  -0.00010  -0.00009  -1.04723
    D5        1.04716   0.00000  -0.00002   0.00000  -0.00002   1.04714
    D6        3.14159   0.00000   0.00000   0.00000   0.00000  -3.14159
    D7       -3.14157   0.00000   0.00004  -0.00005  -0.00001  -3.14158
    D8       -1.04728   0.00000   0.00001   0.00005   0.00006  -1.04722
    D9        1.04716   0.00001   0.00003   0.00005   0.00008   1.04723
         Item               Value     Threshold  Converged?
 Maximum Force            0.009247     0.000015     NO 
 RMS     Force            0.002359     0.000010     NO 
 Maximum Displacement     0.023679     0.000060     NO 
 RMS     Displacement     0.013729     0.000040     NO 
 Predicted change in Energy=-2.282931D-04
 GradGradGradGradGradGradGradGradGradGradGradGradGradGradGradGradGradGrad

                          Input orientation:                          
 ---------------------------------------------------------------------
 Center     Atomic      Atomic             Coordinates (Angstroms)
 Number     Number       Type             X           Y           Z
 ---------------------------------------------------------------------
      1          6           0        1.014807    0.181725   -0.063238
      2          6           0        2.019036   -0.835080    0.541124
      3          1           0        1.362389    1.214081    0.095588
      4          1           0        0.024370    0.076731    0.405561
      5          1           0        0.901111    0.020345   -1.146196
      6          1           0        2.132719   -0.673697    1.624083
      7          1           0        1.671440   -1.867432    0.382300
      8          1           0        3.009479   -0.730102    0.072338
 ---------------------------------------------------------------------
                    Distance matrix (angstroms):
                    1          2          3          4          5
     1  C    0.000000
     2  C    1.551651   0.000000
     3  H    1.100817   2.197441   0.000000
     4  H    1.100800   2.197377   1.783239   0.000000
     5  H    1.100804   2.197398   1.783202   1.783200   0.000000
     6  H    2.197391   1.100804   2.548217   2.548151   3.110145
     7  H    2.197434   1.100817   3.110215   2.548166   2.548217
     8  H    2.197391   1.100799   2.548194   3.110127   2.548178
                    6          7          8
     6  H    0.000000
     7  H    1.783201   0.000000
     8  H    1.783200   1.783240   0.000000
 Stoichiometry    C2H6
 Framework group  C1[X(C2H6)]
 Deg. of freedom    18
 Full point group                 C1      NOp   1
 Largest Abelian subgroup         C1      NOp   1
 Largest concise Abelian subgroup C1      NOp   1
                         Standard orientation:                         
 ---------------------------------------------------------------------
 Center     Atomic      Atomic             Coordinates (Angstroms)
 Number     Number       Type             X           Y           Z
 ---------------------------------------------------------------------
      1          6           0       -0.775826    0.000004   -0.000004
      2          6           0        0.775826   -0.000007    0.000006
      3          1           0       -1.165520   -0.901834   -0.496616
      4          1           0       -1.165428    0.881040   -0.532682
      5          1           0       -1.165470    0.020839    1.029322
      6          1           0        1.165461   -0.020833   -1.029324
      7          1           0        1.165510    0.901840    0.496612
      8          1           0        1.165448   -0.881035    0.532679
 ---------------------------------------------------------------------
 Rotational constants (GHZ):     78.8488329     19.5397807     19.5396411
 Standard basis: STO-3G (5D, 7F)
 There are    16 symmetry adapted cartesian basis functions of A   symmetry.
 There are    16 symmetry adapted basis functions of A   symmetry.
    16 basis functions,    48 primitive gaussians,    16 cartesian basis functions
     9 alpha electrons        9 beta electrons
       nuclear repulsion energy        41.7897823057 Hartrees.
 NAtoms=    8 NActive=    8 NUniq=    8 SFac= 1.00D+00 NAtFMM=   60 NAOKFM=F Big=F
 Integral buffers will be    131072 words long.
 Raffenetti 2 integral format.
 Two-electron integral symmetry is turned on.
 One-electron integrals computed using PRISM.
 NBasis=    16 RedAO= T EigKep=  2.14D-01  NBF=    16
 NBsUse=    16 1.00D-06 EigRej= -1.00D+00 NBFU=    16
 Initial guess from the checkpoint file:  "/data/trash/Gau-6547.chk"
 B after Tr=     0.000000    0.000000    0.000000
         Rot=    0.949276    0.314445   -0.000002    0.000017 Ang=  36.65 deg.
 ExpMin= 1.69D-01 ExpMax= 7.16D+01 ExpMxC= 7.16D+01 IAcc=1 IRadAn=         1 AccDes= 0.00D+00
 Harris functional with IExCor=  402 and IRadAn=       1 diagonalized for initial guess.
 HarFok:  IExCor=  402 AccDes= 0.00D+00 IRadAn=         1 IDoV= 1 UseB2=F ITyADJ=14
 ICtDFT=  3500011 ScaDFX=  1.000000  1.000000  1.000000  1.000000
 FoFCou: FMM=F IPFlag=           0 FMFlag=      100000 FMFlg1=           0
         NFxFlg=           0 DoJE=T BraDBF=F KetDBF=T FulRan=T
         wScrn=  0.000000 ICntrl=     500 IOpCl=  0 I1Cent=   200000004 NGrid=           0
         NMat0=    1 NMatS0=      1 NMatT0=    0 NMatD0=    1 NMtDS0=    0 NMtDT0=    0
 Petite list used in FoFCou.
 Keep R1 ints in memory in canonical form, NReq=888705.
 Requested convergence on RMS density matrix=1.00D-08 within 128 cycles.
 Requested convergence on MAX density matrix=1.00D-06.
 Requested convergence on             energy=1.00D-06.
 No special actions if energy rises.
 Integral accuracy reduced to 1.0D-05 until final iterations.
 Initial convergence to 1.0D-05 achieved.  Increase integral accuracy.
 SCF Done:  E(RB3LYP) =  -78.8859023894     A.U. after    8 cycles
            NFock=  8  Conv=0.34D-08     -V/T= 2.0176
 Calling FoFJK, ICntrl=      2127 FMM=F ISym2X=0 I1Cent= 0 IOpClX= 0 NMat=1 NMatS=1 NMatT=0.
 ***** Axes restored to original set *****
 -------------------------------------------------------------------
 Center     Atomic                   Forces (Hartrees/Bohr)
 Number     Number              X              Y              Z
 -------------------------------------------------------------------
      1        6           0.000054520   -0.000052246    0.000009474
      2        6          -0.000055864    0.000051584   -0.000008264
      3        1          -0.000019178   -0.000037410    0.000000938
      4        1           0.000022593    0.000013263   -0.000012547
      5        1          -0.000003302    0.000007057    0.000029857
      6        1           0.000003879   -0.000007374   -0.000030143
      7        1           0.000019942    0.000037414   -0.000000870
      8        1          -0.000022590   -0.000012287    0.000011555
 -------------------------------------------------------------------
 Cartesian Forces:  Max     0.000055864 RMS     0.000027971

 GradGradGradGradGradGradGradGradGradGradGradGradGradGradGradGradGradGrad
 Berny optimization.
 Using GEDIIS/GDIIS optimizer.
 FormGI is forming the generalized inverse of G from B-inverse, IUseBI=4.
 Internal  Forces:  Max     0.000091593 RMS     0.000023785
 Search for a local minimum.
 Step number   3 out of a maximum of   38
 All quantities printed in internal units (Hartrees-Bohrs-Radians)
 Mixed Optimization -- En-DIIS/RFO-DIIS
 Update second derivatives using D2CorX and points    1    2    3
 DE= -2.40D-04 DEPred=-2.28D-04 R= 1.05D+00
 TightC=F SS=  1.41D+00  RLast= 4.03D-02 DXNew= 6.7024D-01 1.2090D-01
 Trust test= 1.05D+00 RLast= 4.03D-02 DXMaxT set to 3.99D-01
 ITU=  1  1  0
 Use linear search instead of GDIIS.
     Eigenvalues ---    0.00512   0.05670   0.05670   0.05670   0.05670
     Eigenvalues ---    0.16000   0.16000   0.16000   0.16000   0.16000
     Eigenvalues ---    0.17612   0.31813   0.32559   0.32559   0.32560
     Eigenvalues ---    0.32561   0.32561   0.37853
 RFO step:  Lambda=-5.52108821D-08 EMin= 5.11964015D-03
 Quartic linear search produced a step of  0.00106.
 Iteration  1 RMS(Cart)=  0.00009443 RMS(Int)=  0.00000003
 Iteration  2 RMS(Cart)=  0.00000001 RMS(Int)=  0.00000003
 Variable       Old X    -DE/DX   Delta X   Delta X   Delta X     New X
                                 (Linear)    (Quad)   (Total)
    R1        2.93220  -0.00009  -0.00002  -0.00027  -0.00029   2.93190
    R2        2.08024  -0.00004   0.00000  -0.00013  -0.00013   2.08012
    R3        2.08021  -0.00003   0.00000  -0.00009  -0.00008   2.08012
    R4        2.08022  -0.00003   0.00000  -0.00010  -0.00009   2.08012
    R5        2.08022  -0.00003   0.00000  -0.00010  -0.00010   2.08012
    R6        2.08024  -0.00004   0.00000  -0.00013  -0.00013   2.08012
    R7        2.08021  -0.00003   0.00000  -0.00009  -0.00008   2.08012
    A1        1.93264   0.00000  -0.00001  -0.00002  -0.00003   1.93262
    A2        1.93257   0.00001  -0.00001   0.00006   0.00006   1.93263
    A3        1.93260   0.00001  -0.00001   0.00010   0.00009   1.93268
    A4        1.88820  -0.00001   0.00001  -0.00013  -0.00012   1.88808
    A5        1.88813   0.00000   0.00001   0.00001   0.00002   1.88815
    A6        1.88815  -0.00001   0.00001  -0.00003  -0.00002   1.88813
    A7        1.93259   0.00001  -0.00001   0.00011   0.00010   1.93268
    A8        1.93263   0.00000  -0.00001  -0.00001  -0.00002   1.93262
    A9        1.93259   0.00001  -0.00001   0.00005   0.00004   1.93263
   A10        1.88813   0.00000   0.00001   0.00001   0.00002   1.88815
   A11        1.88815  -0.00001   0.00001  -0.00003  -0.00002   1.88813
   A12        1.88820  -0.00001   0.00001  -0.00013  -0.00012   1.88808
    D1        1.04722   0.00000   0.00000  -0.00007  -0.00007   1.04715
    D2        3.14158   0.00000   0.00000   0.00001   0.00001   3.14159
    D3       -1.04715  -0.00001   0.00000  -0.00013  -0.00013  -1.04727
    D4       -1.04723   0.00000   0.00000   0.00006   0.00006  -1.04717
    D5        1.04714   0.00001   0.00000   0.00013   0.00013   1.04727
    D6       -3.14159   0.00000   0.00000   0.00000   0.00000   3.14159
    D7       -3.14158   0.00000   0.00000  -0.00001  -0.00001  -3.14159
    D8       -1.04722   0.00000   0.00000   0.00007   0.00007  -1.04715
    D9        1.04723   0.00000   0.00000  -0.00006  -0.00006   1.04717
         Item               Value     Threshold  Converged?
 Maximum Force            0.000092     0.000015     NO 
 RMS     Force            0.000024     0.000010     NO 
 Maximum Displacement     0.000245     0.000060     NO 
 RMS     Displacement     0.000094     0.000040     NO 
 Predicted change in Energy=-2.786674D-08
 GradGradGradGradGradGradGradGradGradGradGradGradGradGradGradGradGradGrad

                          Input orientation:                          
 ---------------------------------------------------------------------
 Center     Atomic      Atomic             Coordinates (Angstroms)
 Number     Number       Type             X           Y           Z
 ---------------------------------------------------------------------
      1          6           0        1.014853    0.181655   -0.063232
      2          6           0        2.018985   -0.835013    0.541122
      3          1           0        1.362385    1.213951    0.095628
      4          1           0        0.024444    0.076752    0.405540
      5          1           0        0.901125    0.020320   -1.146143
      6          1           0        2.132712   -0.673677    1.624033
      7          1           0        1.671452   -1.867308    0.382262
      8          1           0        3.009394   -0.730110    0.072351
 ---------------------------------------------------------------------
                    Distance matrix (angstroms):
                    1          2          3          4          5
     1  C    0.000000
     2  C    1.551496   0.000000
     3  H    1.100750   2.197235   0.000000
     4  H    1.100755   2.197246   1.783074   0.000000
     5  H    1.100753   2.197287   1.783118   1.783107   0.000000
     6  H    2.197286   1.100753   2.548051   2.548070   3.110034
     7  H    2.197234   1.100750   3.109958   2.548047   2.548051
     8  H    2.197248   1.100755   2.548050   3.109979   2.548073
                    6          7          8
     6  H    0.000000
     7  H    1.783118   0.000000
     8  H    1.783107   1.783074   0.000000
 Stoichiometry    C2H6
 Framework group  C1[X(C2H6)]
 Deg. of freedom    18
 Full point group                 C1      NOp   1
 Largest Abelian subgroup         C1      NOp   1
 Largest concise Abelian subgroup C1      NOp   1
                         Standard orientation:                         
 ---------------------------------------------------------------------
 Center     Atomic      Atomic             Coordinates (Angstroms)
 Number     Number       Type             X           Y           Z
 ---------------------------------------------------------------------
      1          6           0       -0.775748    0.000005    0.000004
      2          6           0        0.775748   -0.000005   -0.000004
      3          1           0       -1.165388   -0.616897    0.824178
      4          1           0       -1.165408   -0.405367   -0.946305
      5          1           0       -1.165452    1.022196    0.122121
      6          1           0        1.165451   -1.022197   -0.122122
      7          1           0        1.165387    0.616897   -0.824178
      8          1           0        1.165410    0.405367    0.946304
 ---------------------------------------------------------------------
 Rotational constants (GHZ):     78.8589049     19.5428792     19.5427347
 Standard basis: STO-3G (5D, 7F)
 There are    16 symmetry adapted cartesian basis functions of A   symmetry.
 There are    16 symmetry adapted basis functions of A   symmetry.
    16 basis functions,    48 primitive gaussians,    16 cartesian basis functions
     9 alpha electrons        9 beta electrons
       nuclear repulsion energy        41.7926556470 Hartrees.
 NAtoms=    8 NActive=    8 NUniq=    8 SFac= 1.00D+00 NAtFMM=   60 NAOKFM=F Big=F
 Integral buffers will be    131072 words long.
 Raffenetti 2 integral format.
 Two-electron integral symmetry is turned on.
 One-electron integrals computed using PRISM.
 NBasis=    16 RedAO= T EigKep=  2.14D-01  NBF=    16
 NBsUse=    16 1.00D-06 EigRej= -1.00D+00 NBFU=    16
 Initial guess from the checkpoint file:  "/data/trash/Gau-6547.chk"
 B after Tr=     0.000000    0.000000    0.000000
         Rot=    0.754549    0.656244   -0.000001   -0.000012 Ang=  82.03 deg.
 Keep R1 ints in memory in canonical form, NReq=888705.
 Requested convergence on RMS density matrix=1.00D-08 within 128 cycles.
 Requested convergence on MAX density matrix=1.00D-06.
 Requested convergence on             energy=1.00D-06.
 No special actions if energy rises.
 SCF Done:  E(RB3LYP) =  -78.8859025100     A.U. after    5 cycles
            NFock=  5  Conv=0.71D-09     -V/T= 2.0176
 Calling FoFJK, ICntrl=      2127 FMM=F ISym2X=0 I1Cent= 0 IOpClX= 0 NMat=1 NMatS=1 NMatT=0.
 ***** Axes restored to original set *****
 -------------------------------------------------------------------
 Center     Atomic                   Forces (Hartrees/Bohr)
 Number     Number              X              Y              Z
 -------------------------------------------------------------------
      1        6           0.000014546   -0.000020300    0.000024027
      2        6          -0.000014585    0.000020284   -0.000023995
      3        1           0.000005000    0.000015826   -0.000008265
      4        1          -0.000025819    0.000004290   -0.000000161
      5        1           0.000012457   -0.000003058   -0.000010397
      6        1          -0.000012419    0.000003009    0.000010400
      7        1          -0.000004953   -0.000015851    0.000008296
      8        1           0.000025772   -0.000004201    0.000000095
 -------------------------------------------------------------------
 Cartesian Forces:  Max     0.000025819 RMS     0.000014434

 GradGradGradGradGradGradGradGradGradGradGradGradGradGradGradGradGradGrad
 Berny optimization.
 Using GEDIIS/GDIIS optimizer.
 FormGI is forming the generalized inverse of G from B-inverse, IUseBI=4.
 Internal  Forces:  Max     0.000025343 RMS     0.000010043
 Search for a local minimum.
 Step number   4 out of a maximum of   38
 All quantities printed in internal units (Hartrees-Bohrs-Radians)
 Mixed Optimization -- En-DIIS/RFO-DIIS
 Swapping is turned off.
 Update second derivatives using D2CorX and points    1    2    3    4
 DE= -1.21D-07 DEPred=-2.79D-08 R= 4.32D+00
 Trust test= 4.32D+00 RLast= 5.02D-04 DXMaxT set to 3.99D-01
 ITU=  0  1  1  0
     Eigenvalues ---    0.00512   0.05565   0.05669   0.05670   0.06226
     Eigenvalues ---    0.14316   0.16000   0.16000   0.16000   0.16178
     Eigenvalues ---    0.17022   0.30224   0.32552   0.32560   0.32560
     Eigenvalues ---    0.32560   0.34955   0.45781
 En-DIIS/RFO-DIIS IScMMF=        0 using points:     4    3
 RFO step:  Lambda= 0.00000000D+00.
 DidBck=F Rises=F RFO-DIIS coefs:    0.85465    0.14535
 Iteration  1 RMS(Cart)=  0.00004628 RMS(Int)=  0.00000000
 Iteration  2 RMS(Cart)=  0.00000000 RMS(Int)=  0.00000000
 Variable       Old X    -DE/DX   Delta X   Delta X   Delta X     New X
                                 (Linear)    (Quad)   (Total)
    R1        2.93190  -0.00001   0.00004  -0.00011  -0.00007   2.93183
    R2        2.08012   0.00002   0.00002   0.00000   0.00002   2.08013
    R3        2.08012   0.00003   0.00001   0.00004   0.00005   2.08018
    R4        2.08012   0.00001   0.00001  -0.00001   0.00000   2.08012
    R5        2.08012   0.00001   0.00001  -0.00001   0.00000   2.08012
    R6        2.08012   0.00002   0.00002   0.00000   0.00002   2.08013
    R7        2.08012   0.00003   0.00001   0.00004   0.00005   2.08018
    A1        1.93262   0.00001   0.00000   0.00002   0.00003   1.93265
    A2        1.93263   0.00001  -0.00001   0.00011   0.00010   1.93273
    A3        1.93268  -0.00001  -0.00001  -0.00005  -0.00006   1.93262
    A4        1.88808  -0.00001   0.00002  -0.00003  -0.00002   1.88807
    A5        1.88815   0.00000   0.00000  -0.00006  -0.00006   1.88809
    A6        1.88813   0.00000   0.00000   0.00000   0.00000   1.88813
    A7        1.93268  -0.00001  -0.00001  -0.00005  -0.00006   1.93262
    A8        1.93262   0.00001   0.00000   0.00003   0.00003   1.93265
    A9        1.93263   0.00001  -0.00001   0.00010   0.00010   1.93273
   A10        1.88815   0.00000   0.00000  -0.00005  -0.00006   1.88809
   A11        1.88813   0.00000   0.00000   0.00000   0.00000   1.88813
   A12        1.88808  -0.00001   0.00002  -0.00003  -0.00002   1.88807
    D1        1.04715   0.00001   0.00001   0.00008   0.00009   1.04724
    D2        3.14159   0.00000   0.00000   0.00000   0.00000  -3.14159
    D3       -1.04727   0.00001   0.00002   0.00005   0.00007  -1.04721
    D4       -1.04717   0.00000  -0.00001   0.00004   0.00003  -1.04714
    D5        1.04727  -0.00001  -0.00002  -0.00005  -0.00007   1.04721
    D6        3.14159   0.00000   0.00000   0.00000   0.00000   3.14159
    D7       -3.14159   0.00000   0.00000   0.00000   0.00000   3.14159
    D8       -1.04715  -0.00001  -0.00001  -0.00008  -0.00009  -1.04724
    D9        1.04717   0.00000   0.00001  -0.00004  -0.00003   1.04714
         Item               Value     Threshold  Converged?
 Maximum Force            0.000025     0.000015     NO 
 RMS     Force            0.000010     0.000010     NO 
 Maximum Displacement     0.000107     0.000060     NO 
 RMS     Displacement     0.000046     0.000040     NO 
 Predicted change in Energy=-5.393689D-09
 GradGradGradGradGradGradGradGradGradGradGradGradGradGradGradGradGradGrad

                          Input orientation:                          
 ---------------------------------------------------------------------
 Center     Atomic      Atomic             Coordinates (Angstroms)
 Number     Number       Type             X           Y           Z
 ---------------------------------------------------------------------
      1          6           0        1.014845    0.181643   -0.063194
      2          6           0        2.018992   -0.835001    0.541084
      3          1           0        1.362372    1.213959    0.095620
      4          1           0        0.024387    0.076784    0.405548
      5          1           0        0.901159    0.020309   -1.146109
      6          1           0        2.132679   -0.673667    1.624000
      7          1           0        1.671467   -1.867317    0.382271
      8          1           0        3.009449   -0.730139    0.072341
 ---------------------------------------------------------------------
                    Distance matrix (angstroms):
                    1          2          3          4          5
     1  C    0.000000
     2  C    1.551460   0.000000
     3  H    1.100759   2.197231   0.000000
     4  H    1.100782   2.197309   1.783094   0.000000
     5  H    1.100754   2.197209   1.783089   1.783132   0.000000
     6  H    2.197210   1.100754   2.548029   2.548077   3.109944
     7  H    2.197232   1.100759   3.109978   2.548125   2.548029
     8  H    2.197308   1.100782   2.548121   3.110103   2.548073
                    6          7          8
     6  H    0.000000
     7  H    1.783089   0.000000
     8  H    1.783132   1.783094   0.000000
 Stoichiometry    C2H6
 Framework group  C1[X(C2H6)]
 Deg. of freedom    18
 Full point group                 C1      NOp   1
 Largest Abelian subgroup         C1      NOp   1
 Largest concise Abelian subgroup C1      NOp   1
                         Standard orientation:                         
 ---------------------------------------------------------------------
 Center     Atomic      Atomic             Coordinates (Angstroms)
 Number     Number       Type             X           Y           Z
 ---------------------------------------------------------------------
      1          6           0       -0.775730    0.000009   -0.000004
      2          6           0        0.775730   -0.000009    0.000004
      3          1           0       -1.165408    0.056051    1.027946
      4          1           0       -1.165506   -0.918233   -0.465438
      5          1           0       -1.165363    0.862257   -0.562475
      6          1           0        1.165365   -0.862256    0.562475
      7          1           0        1.165409   -0.056050   -1.027946
      8          1           0        1.165503    0.918233    0.465438
 ---------------------------------------------------------------------
 Rotational constants (GHZ):     78.8584363     19.5432746     19.5431291
 Standard basis: STO-3G (5D, 7F)
 There are    16 symmetry adapted cartesian basis functions of A   symmetry.
 There are    16 symmetry adapted basis functions of A   symmetry.
    16 basis functions,    48 primitive gaussians,    16 cartesian basis functions
     9 alpha electrons        9 beta electrons
       nuclear repulsion energy        41.7927512116 Hartrees.
 NAtoms=    8 NActive=    8 NUniq=    8 SFac= 1.00D+00 NAtFMM=   60 NAOKFM=F Big=F
 Integral buffers will be    131072 words long.
 Raffenetti 2 integral format.
 Two-electron integral symmetry is turned on.
 One-electron integrals computed using PRISM.
 NBasis=    16 RedAO= T EigKep=  2.14D-01  NBF=    16
 NBsUse=    16 1.00D-06 EigRej= -1.00D+00 NBFU=    16
 Initial guess from the checkpoint file:  "/data/trash/Gau-6547.chk"
 B after Tr=     0.000000    0.000000    0.000000
         Rot=    0.939894    0.341467   -0.000003    0.000017 Ang=  39.93 deg.
 Keep R1 ints in memory in canonical form, NReq=888705.
 Requested convergence on RMS density matrix=1.00D-08 within 128 cycles.
 Requested convergence on MAX density matrix=1.00D-06.
 Requested convergence on             energy=1.00D-06.
 No special actions if energy rises.
 SCF Done:  E(RB3LYP) =  -78.8859023933     A.U. after    4 cycles
            NFock=  4  Conv=0.33D-08     -V/T= 2.0176
 Calling FoFJK, ICntrl=      2127 FMM=F ISym2X=0 I1Cent= 0 IOpClX= 0 NMat=1 NMatS=1 NMatT=0.
 ***** Axes restored to original set *****
 -------------------------------------------------------------------
 Center     Atomic                   Forces (Hartrees/Bohr)
 Number     Number              X              Y              Z
 -------------------------------------------------------------------
      1        6          -0.000002940    0.000023335    0.000006972
      2        6           0.000003144   -0.000023235   -0.000007157
      3        1           0.000006018    0.000004725   -0.000004082
      4        1           0.000007389   -0.000008765   -0.000008529
      5        1          -0.000007139    0.000000612   -0.000011001
      6        1           0.000007056   -0.000000578    0.000011047
      7        1          -0.000006126   -0.000004731    0.000004084
      8        1          -0.000007402    0.000008638    0.000008666
 -------------------------------------------------------------------
 Cartesian Forces:  Max     0.000023335 RMS     0.000009371

 GradGradGradGradGradGradGradGradGradGradGradGradGradGradGradGradGradGrad
 Berny optimization.
 Using GEDIIS/GDIIS optimizer.
 FormGI is forming the generalized inverse of G from B-inverse, IUseBI=4.
 Internal  Forces:  Max     0.000017371 RMS     0.000007196
 Search for a local minimum.
 Step number   5 out of a maximum of   38
 All quantities printed in internal units (Hartrees-Bohrs-Radians)
 Mixed Optimization -- En-DIIS/RFO-DIIS
 Swapping is turned off.
 Update second derivatives using D2CorX and points    1    2    3    4    5
 DE=  1.17D-07 DEPred=-5.39D-09 R=-2.16D+01
 Trust test=-2.16D+01 RLast= 2.75D-04 DXMaxT set to 1.99D-01
 ITU= -1  0  1  1  0
     Eigenvalues ---    0.00512   0.05355   0.05669   0.05672   0.06531
     Eigenvalues ---    0.15188   0.16000   0.16000   0.16004   0.16180
     Eigenvalues ---    0.21552   0.32520   0.32560   0.32560   0.32560
     Eigenvalues ---    0.33623   0.38322   0.48126
 En-DIIS/RFO-DIIS IScMMF=        0 using points:     5    4    3
 RFO step:  Lambda= 0.00000000D+00.
 DidBck=T Rises=F RFO-DIIS coefs:    0.59790    0.26776    0.13434
 Iteration  1 RMS(Cart)=  0.00002894 RMS(Int)=  0.00000000
 Iteration  2 RMS(Cart)=  0.00000000 RMS(Int)=  0.00000000
 Variable       Old X    -DE/DX   Delta X   Delta X   Delta X     New X
                                 (Linear)    (Quad)   (Total)
    R1        2.93183   0.00002   0.00007  -0.00004   0.00003   2.93186
    R2        2.08013   0.00000   0.00001   0.00000   0.00001   2.08015
    R3        2.08018  -0.00001  -0.00001   0.00000  -0.00001   2.08017
    R4        2.08012   0.00001   0.00001   0.00001   0.00002   2.08015
    R5        2.08012   0.00001   0.00001   0.00001   0.00002   2.08015
    R6        2.08013   0.00000   0.00001   0.00000   0.00001   2.08015
    R7        2.08018  -0.00001  -0.00001   0.00000  -0.00001   2.08017
    A1        1.93265   0.00000  -0.00001   0.00003   0.00003   1.93267
    A2        1.93273  -0.00001  -0.00005   0.00001  -0.00004   1.93269
    A3        1.93262   0.00001   0.00001   0.00000   0.00002   1.93264
    A4        1.88807   0.00001   0.00002   0.00002   0.00005   1.88811
    A5        1.88809   0.00000   0.00002  -0.00003  -0.00001   1.88809
    A6        1.88813   0.00000   0.00000  -0.00004  -0.00004   1.88809
    A7        1.93262   0.00001   0.00001   0.00000   0.00001   1.93264
    A8        1.93265   0.00000  -0.00001   0.00003   0.00002   1.93267
    A9        1.93273  -0.00001  -0.00004   0.00001  -0.00004   1.93269
   A10        1.88809   0.00000   0.00002  -0.00003  -0.00001   1.88809
   A11        1.88813   0.00000   0.00000  -0.00004  -0.00004   1.88809
   A12        1.88807   0.00001   0.00002   0.00002   0.00005   1.88811
    D1        1.04724   0.00000  -0.00003   0.00001  -0.00002   1.04722
    D2       -3.14159   0.00000   0.00000   0.00000   0.00000  -3.14159
    D3       -1.04721   0.00000  -0.00001   0.00006   0.00005  -1.04716
    D4       -1.04714  -0.00001  -0.00002  -0.00005  -0.00007  -1.04721
    D5        1.04721   0.00000   0.00001  -0.00006  -0.00005   1.04716
    D6        3.14159   0.00000   0.00000   0.00000   0.00000   3.14159
    D7        3.14159   0.00000   0.00000   0.00000   0.00000   3.14159
    D8       -1.04724   0.00000   0.00003  -0.00001   0.00002  -1.04722
    D9        1.04714   0.00001   0.00002   0.00005   0.00007   1.04721
         Item               Value     Threshold  Converged?
 Maximum Force            0.000017     0.000015     NO 
 RMS     Force            0.000007     0.000010     YES
 Maximum Displacement     0.000049     0.000060     YES
 RMS     Displacement     0.000029     0.000040     YES
 Predicted change in Energy=-2.155305D-09
 GradGradGradGradGradGradGradGradGradGradGradGradGradGradGradGradGradGrad

                          Input orientation:                          
 ---------------------------------------------------------------------
 Center     Atomic      Atomic             Coordinates (Angstroms)
 Number     Number       Type             X           Y           Z
 ---------------------------------------------------------------------
      1          6           0        1.014852    0.181660   -0.063197
      2          6           0        2.018985   -0.835018    0.541087
      3          1           0        1.362382    1.213983    0.095604
      4          1           0        0.024399    0.076758    0.405534
      5          1           0        0.901135    0.020326   -1.146121
      6          1           0        2.132704   -0.673684    1.624012
      7          1           0        1.671456   -1.867341    0.382287
      8          1           0        3.009438   -0.730115    0.072355
 ---------------------------------------------------------------------
                    Distance matrix (angstroms):
                    1          2          3          4          5
     1  C    0.000000
     2  C    1.551475   0.000000
     3  H    1.100766   2.197268   0.000000
     4  H    1.100777   2.197290   1.783126   0.000000
     5  H    1.100766   2.197243   1.783101   1.783111   0.000000
     6  H    2.197243   1.100766   2.548080   2.548097   3.109992
     7  H    2.197268   1.100766   3.110028   2.548109   2.548080
     8  H    2.197289   1.100777   2.548107   3.110065   2.548095
                    6          7          8
     6  H    0.000000
     7  H    1.783101   0.000000
     8  H    1.783111   1.783126   0.000000
 Stoichiometry    C2H6
 Framework group  C1[X(C2H6)]
 Deg. of freedom    18
 Full point group                 C1      NOp   1
 Largest Abelian subgroup         C1      NOp   1
 Largest concise Abelian subgroup C1      NOp   1
                         Standard orientation:                         
 ---------------------------------------------------------------------
 Center     Atomic      Atomic             Coordinates (Angstroms)
 Number     Number       Type             X           Y           Z
 ---------------------------------------------------------------------
      1          6           0       -0.775738    0.000002    0.000001
      2          6           0        0.775738   -0.000002   -0.000001
      3          1           0       -1.165437    0.765682    0.688154
      4          1           0       -1.165464   -0.978810    0.318987
      5          1           0       -1.165405    0.213149   -1.007180
      6          1           0        1.165405   -0.213149    1.007180
      7          1           0        1.165437   -0.765682   -0.688154
      8          1           0        1.165463    0.978810   -0.318987
 ---------------------------------------------------------------------
 Rotational constants (GHZ):     78.8578034     19.5429038     19.5428250
 Standard basis: STO-3G (5D, 7F)
 There are    16 symmetry adapted cartesian basis functions of A   symmetry.
 There are    16 symmetry adapted basis functions of A   symmetry.
    16 basis functions,    48 primitive gaussians,    16 cartesian basis functions
     9 alpha electrons        9 beta electrons
       nuclear repulsion energy        41.7924711467 Hartrees.
 NAtoms=    8 NActive=    8 NUniq=    8 SFac= 1.00D+00 NAtFMM=   60 NAOKFM=F Big=F
 Integral buffers will be    131072 words long.
 Raffenetti 2 integral format.
 Two-electron integral symmetry is turned on.
 One-electron integrals computed using PRISM.
 NBasis=    16 RedAO= T EigKep=  2.14D-01  NBF=    16
 NBsUse=    16 1.00D-06 EigRej= -1.00D+00 NBFU=    16
 Initial guess from the checkpoint file:  "/data/trash/Gau-6547.chk"
 B after Tr=     0.000000    0.000000    0.000000
         Rot=    0.924108    0.382132   -0.000001   -0.000009 Ang=  44.93 deg.
 Keep R1 ints in memory in canonical form, NReq=888705.
 Requested convergence on RMS density matrix=1.00D-08 within 128 cycles.
 Requested convergence on MAX density matrix=1.00D-06.
 Requested convergence on             energy=1.00D-06.
 No special actions if energy rises.
 SCF Done:  E(RB3LYP) =  -78.8859069139     A.U. after    4 cycles
            NFock=  4  Conv=0.36D-08     -V/T= 2.0176
 Calling FoFJK, ICntrl=      2127 FMM=F ISym2X=0 I1Cent= 0 IOpClX= 0 NMat=1 NMatS=1 NMatT=0.
 ***** Axes restored to original set *****
 -------------------------------------------------------------------
 Center     Atomic                   Forces (Hartrees/Bohr)
 Number     Number              X              Y              Z
 -------------------------------------------------------------------
      1        6           0.000001145   -0.000017500    0.000006353
      2        6          -0.000001058    0.000017542   -0.000006434
      3        1           0.000001497    0.000008725    0.000000342
      4        1          -0.000003445   -0.000001896   -0.000010536
      5        1           0.000008282   -0.000000475   -0.000003716
      6        1          -0.000008322    0.000000495    0.000003736
      7        1          -0.000001548   -0.000008724   -0.000000346
      8        1           0.000003448    0.000001832    0.000010601
 -------------------------------------------------------------------
 Cartesian Forces:  Max     0.000017542 RMS     0.000007290

 GradGradGradGradGradGradGradGradGradGradGradGradGradGradGradGradGradGrad
 Berny optimization.
 Using GEDIIS/GDIIS optimizer.
 FormGI is forming the generalized inverse of G from B-inverse, IUseBI=4.
 Internal  Forces:  Max     0.000009589 RMS     0.000003403
 Search for a local minimum.
 Step number   6 out of a maximum of   38
 All quantities printed in internal units (Hartrees-Bohrs-Radians)
 Mixed Optimization -- En-DIIS/RFO-DIIS
 Swapping is turned off.
 Update second derivatives using D2CorX and points    1    2    3    4    5
                                                      6
 DE= -4.52D-06 DEPred=-2.16D-09 R= 2.10D+03
 TightC=F SS=  1.41D+00  RLast= 1.72D-04 DXNew= 3.3512D-01 5.1548D-04
 Trust test= 2.10D+03 RLast= 1.72D-04 DXMaxT set to 1.99D-01
 ITU=  1 -1  0  1  1  0
     Eigenvalues ---    0.00512   0.03403   0.05669   0.05669   0.06505
     Eigenvalues ---    0.14739   0.16000   0.16000   0.16000   0.16657
     Eigenvalues ---    0.22019   0.29918   0.32560   0.32560   0.32560
     Eigenvalues ---    0.34456   0.41501   0.54080
 En-DIIS/RFO-DIIS IScMMF=        0 using points:     6    5    4    3
 RFO step:  Lambda= 0.00000000D+00.
 DidBck=F Rises=F RFO-DIIS coefs:    1.19466    0.03095   -0.24023    0.01462
 Iteration  1 RMS(Cart)=  0.00002115 RMS(Int)=  0.00000000
 Iteration  2 RMS(Cart)=  0.00000000 RMS(Int)=  0.00000000
 Variable       Old X    -DE/DX   Delta X   Delta X   Delta X     New X
                                 (Linear)    (Quad)   (Total)
    R1        2.93186  -0.00001  -0.00001  -0.00004  -0.00004   2.93182
    R2        2.08015   0.00001   0.00001   0.00003   0.00004   2.08019
    R3        2.08017   0.00000   0.00001  -0.00002  -0.00001   2.08016
    R4        2.08015   0.00000   0.00001   0.00000   0.00001   2.08016
    R5        2.08015   0.00000   0.00001   0.00000   0.00001   2.08016
    R6        2.08015   0.00001   0.00001   0.00003   0.00004   2.08019
    R7        2.08017   0.00000   0.00001  -0.00002  -0.00001   2.08016
    A1        1.93267   0.00000   0.00001   0.00001   0.00002   1.93269
    A2        1.93269   0.00000   0.00001   0.00002   0.00003   1.93272
    A3        1.93264   0.00000  -0.00001   0.00000  -0.00001   1.93263
    A4        1.88811   0.00000   0.00001   0.00002   0.00003   1.88814
    A5        1.88809   0.00000  -0.00001  -0.00001  -0.00003   1.88806
    A6        1.88809   0.00000  -0.00001  -0.00004  -0.00005   1.88804
    A7        1.93264   0.00000  -0.00001   0.00000  -0.00001   1.93263
    A8        1.93267   0.00000   0.00001   0.00001   0.00002   1.93269
    A9        1.93269   0.00000   0.00001   0.00002   0.00003   1.93272
   A10        1.88809   0.00000  -0.00001  -0.00001  -0.00003   1.88806
   A11        1.88809   0.00000  -0.00001  -0.00004  -0.00005   1.88804
   A12        1.88811   0.00000   0.00001   0.00002   0.00003   1.88814
    D1        1.04722   0.00000   0.00002   0.00001   0.00003   1.04725
    D2       -3.14159   0.00000   0.00000   0.00000   0.00000  -3.14159
    D3       -1.04716   0.00000   0.00003   0.00004   0.00007  -1.04709
    D4       -1.04721   0.00000  -0.00001  -0.00003  -0.00004  -1.04725
    D5        1.04716   0.00000  -0.00003  -0.00004  -0.00007   1.04709
    D6        3.14159   0.00000   0.00000   0.00000   0.00000  -3.14159
    D7        3.14159   0.00000   0.00000   0.00000   0.00000   3.14159
    D8       -1.04722   0.00000  -0.00002  -0.00001  -0.00003  -1.04725
    D9        1.04721   0.00000   0.00001   0.00003   0.00004   1.04725
         Item               Value     Threshold  Converged?
 Maximum Force            0.000010     0.000015     YES
 RMS     Force            0.000003     0.000010     YES
 Maximum Displacement     0.000039     0.000060     YES
 RMS     Displacement     0.000021     0.000040     YES
 Predicted change in Energy=-8.644021D-10
 Optimization completed.
    -- Stationary point found.
                           ----------------------------
                           !   Optimized Parameters   !
                           ! (Angstroms and Degrees)  !
 --------------------------                            --------------------------
 ! Name  Definition              Value          Derivative Info.                !
 --------------------------------------------------------------------------------
 ! R1    R(1,2)                  1.5515         -DE/DX =    0.0                 !
 ! R2    R(1,3)                  1.1008         -DE/DX =    0.0                 !
 ! R3    R(1,4)                  1.1008         -DE/DX =    0.0                 !
 ! R4    R(1,5)                  1.1008         -DE/DX =    0.0                 !
 ! R5    R(2,6)                  1.1008         -DE/DX =    0.0                 !
 ! R6    R(2,7)                  1.1008         -DE/DX =    0.0                 !
 ! R7    R(2,8)                  1.1008         -DE/DX =    0.0                 !
 ! A1    A(2,1,3)              110.7339         -DE/DX =    0.0                 !
 ! A2    A(2,1,4)              110.7349         -DE/DX =    0.0                 !
 ! A3    A(2,1,5)              110.7319         -DE/DX =    0.0                 !
 ! A4    A(3,1,4)              108.1808         -DE/DX =    0.0                 !
 ! A5    A(3,1,5)              108.1794         -DE/DX =    0.0                 !
 ! A6    A(4,1,5)              108.1795         -DE/DX =    0.0                 !
 ! A7    A(1,2,6)              110.7319         -DE/DX =    0.0                 !
 ! A8    A(1,2,7)              110.7339         -DE/DX =    0.0                 !
 ! A9    A(1,2,8)              110.7349         -DE/DX =    0.0                 !
 ! A10   A(6,2,7)              108.1794         -DE/DX =    0.0                 !
 ! A11   A(6,2,8)              108.1795         -DE/DX =    0.0                 !
 ! A12   A(7,2,8)              108.1808         -DE/DX =    0.0                 !
 ! D1    D(3,1,2,6)             60.0015         -DE/DX =    0.0                 !
 ! D2    D(3,1,2,7)           -180.0            -DE/DX =    0.0                 !
 ! D3    D(3,1,2,8)            -59.9978         -DE/DX =    0.0                 !
 ! D4    D(4,1,2,6)            -60.0007         -DE/DX =    0.0                 !
 ! D5    D(4,1,2,7)             59.9978         -DE/DX =    0.0                 !
 ! D6    D(4,1,2,8)           -180.0            -DE/DX =    0.0                 !
 ! D7    D(5,1,2,6)            180.0            -DE/DX =    0.0                 !
 ! D8    D(5,1,2,7)            -60.0015         -DE/DX =    0.0                 !
 ! D9    D(5,1,2,8)             60.0007         -DE/DX =    0.0                 !
 --------------------------------------------------------------------------------
 GradGradGradGradGradGradGradGradGradGradGradGradGradGradGradGradGradGrad

                          Input orientation:                          
 ---------------------------------------------------------------------
 Center     Atomic      Atomic             Coordinates (Angstroms)
 Number     Number       Type             X           Y           Z
 ---------------------------------------------------------------------
      1          6           0        1.014852    0.181660   -0.063197
      2          6           0        2.018985   -0.835018    0.541087
      3          1           0        1.362382    1.213983    0.095604
      4          1           0        0.024399    0.076758    0.405534
      5          1           0        0.901135    0.020326   -1.146121
      6          1           0        2.132704   -0.673684    1.624012
      7          1           0        1.671456   -1.867341    0.382287
      8          1           0        3.009438   -0.730115    0.072355
 ---------------------------------------------------------------------
                    Distance matrix (angstroms):
                    1          2          3          4          5
     1  C    0.000000
     2  C    1.551475   0.000000
     3  H    1.100766   2.197268   0.000000
     4  H    1.100777   2.197290   1.783126   0.000000
     5  H    1.100766   2.197243   1.783101   1.783111   0.000000
     6  H    2.197243   1.100766   2.548080   2.548097   3.109992
     7  H    2.197268   1.100766   3.110028   2.548109   2.548080
     8  H    2.197289   1.100777   2.548107   3.110065   2.548095
                    6          7          8
     6  H    0.000000
     7  H    1.783101   0.000000
     8  H    1.783111   1.783126   0.000000
 Stoichiometry    C2H6
 Framework group  C1[X(C2H6)]
 Deg. of freedom    18
 Full point group                 C1      NOp   1
 Largest Abelian subgroup         C1      NOp   1
 Largest concise Abelian subgroup C1      NOp   1
                         Standard orientation:                         
 ---------------------------------------------------------------------
 Center     Atomic      Atomic             Coordinates (Angstroms)
 Number     Number       Type             X           Y           Z
 ---------------------------------------------------------------------
      1          6           0       -0.775738    0.000002    0.000001
      2          6           0        0.775738   -0.000002   -0.000001
      3          1           0       -1.165437    0.765682    0.688154
      4          1           0       -1.165464   -0.978810    0.318987
      5          1           0       -1.165405    0.213149   -1.007180
      6          1           0        1.165405   -0.213149    1.007180
      7          1           0        1.165437   -0.765682   -0.688154
      8          1           0        1.165463    0.978810   -0.318987
 ---------------------------------------------------------------------
 Rotational constants (GHZ):     78.8578034     19.5429038     19.5428250

 **********************************************************************

            Population analysis using the SCF density.

 **********************************************************************

 Orbital symmetries:
       Occupied  (A) (A) (A) (A) (A) (A) (A) (A) (A)
       Virtual   (A) (A) (A) (A) (A) (A) (A)
 The electronic state is 1-A.
 Alpha  occ. eigenvalues --  -10.00380 -10.00279  -0.71208  -0.58320  -0.40017
 Alpha  occ. eigenvalues --   -0.40017  -0.32283  -0.31056  -0.31055
 Alpha virt. eigenvalues --    0.40501   0.40502   0.41866   0.46773   0.50304
 Alpha virt. eigenvalues --    0.50960   0.50961
          Condensed to atoms (all electrons):
               1          2          3          4          5          6
     1  C    4.773515   0.360789   0.380118   0.380117   0.380117  -0.019510
     2  C    0.360789   4.773515  -0.019509  -0.019508  -0.019510   0.380117
     3  H    0.380118  -0.019509   0.611863  -0.021028  -0.021029  -0.002129
     4  H    0.380117  -0.019508  -0.021028   0.611864  -0.021029  -0.002129
     5  H    0.380117  -0.019510  -0.021029  -0.021029   0.611866   0.001799
     6  H   -0.019510   0.380117  -0.002129  -0.002129   0.001799   0.611866
     7  H   -0.019509   0.380118   0.001799  -0.002129  -0.002129  -0.021029
     8  H   -0.019508   0.380117  -0.002129   0.001799  -0.002129  -0.021029
               7          8
     1  C   -0.019509  -0.019508
     2  C    0.380118   0.380117
     3  H    0.001799  -0.002129
     4  H   -0.002129   0.001799
     5  H   -0.002129  -0.002129
     6  H   -0.021029  -0.021029
     7  H    0.611863  -0.021028
     8  H   -0.021028   0.611864
 Mulliken charges:
               1
     1  C   -0.216129
     2  C   -0.216129
     3  H    0.072043
     4  H    0.072043
     5  H    0.072043
     6  H    0.072043
     7  H    0.072043
     8  H    0.072043
 Sum of Mulliken charges =   0.00000
 Mulliken charges with hydrogens summed into heavy atoms:
               1
     1  C    0.000000
     2  C    0.000000
 Electronic spatial extent (au):  <R**2>=            108.6511
 Charge=              0.0000 electrons
 Dipole moment (field-independent basis, Debye):
    X=              0.0000    Y=              0.0000    Z=              0.0000  Tot=              0.0000
 Quadrupole moment (field-independent basis, Debye-Ang):
   XX=            -14.1425   YY=            -13.8125   ZZ=            -13.8126
   XY=              0.0000   XZ=              0.0000   YZ=              0.0000
 Traceless Quadrupole moment (field-independent basis, Debye-Ang):
   XX=             -0.2199   YY=              0.1100   ZZ=              0.1099
   XY=              0.0000   XZ=              0.0000   YZ=              0.0000
 Octapole moment (field-independent basis, Debye-Ang**2):
  XXX=              0.0000  YYY=              0.0000  ZZZ=              0.0000  XYY=              0.0000
  XXY=              0.0000  XXZ=              0.0000  XZZ=              0.0000  YZZ=              0.0000
  YYZ=              0.0000  XYZ=              0.0000
 Hexadecapole moment (field-independent basis, Debye-Ang**3):
 XXXX=            -85.8860 YYYY=            -24.8805 ZZZZ=            -24.8802 XXXY=              0.0002
 XXXZ=             -0.0002 YYYX=              0.7928 YYYZ=              0.0000 ZZZX=              1.0973
 ZZZY=              0.0000 XXYY=            -17.1091 XXZZ=            -17.1094 YYZZ=             -8.2935
 XXYZ=              0.0000 YYXZ=             -1.0973 ZZXY=             -0.7927
 N-N= 4.179247114669D+01 E-N=-2.651798423518D+02  KE= 7.752398774019D+01
 1\1\GINC-MW\FOpt\RB3LYP\STO-3G\C2H6\BING\25-Feb-2019\0\\# opt(tight) b
 3lyp/sto-3g\\c02h06\\0,1\C,1.0148520856,0.1816598824,-0.0631970091\C,2
 .0189850973,-0.8350175402,0.5410872807\H,1.3623821508,1.2139831099,0.0
 9560357\H,0.0243990511,0.0767579009,0.4055339125\H,0.901134527,0.02032
 60641,-1.1461214273\H,2.1327035372,-0.6736838881,1.6240116014\H,1.6714
 558882,-1.8673410124,0.3822865925\H,3.0094376629,-0.7301145165,0.07235
 54793\\Version=ES64L-G09RevD.01\State=1-A\HF=-78.8859069\RMSD=3.554e-0
 9\RMSF=7.290e-06\Dipole=0.0000001,0.,-0.0000001\Quadrupole=-0.020932,-
 0.0235684,0.0445004,0.1040307,-0.061852,0.062599\PG=C01 [X(C2H6)]\\@


 THERE IS NOTHING NOBLE IN BEING SUPERIOR TO SOME OTHER MAN.
 TRUE NOBILITY IS BEING SUPERIOR TO YOUR FORMER SELF.

                                                   -- HINDU PROVERB
 Job cpu time:       0 days  0 hours  1 minutes 23.2 seconds.
 File lengths (MBytes):  RWF=      5 Int=      0 D2E=      0 Chk=      1 Scr=      1
 Normal termination of Gaussian 09 at Mon Feb 25 22:31:42 2019.
