 Entering Gaussian System, Link 0=g09
 Input=c06h08.com
 Output=c06h08.out
 Initial command:
 /home/bing/src/g09_d.01/g09/l1.exe "/data/trash/Gau-2784.inp" -scrdir="/data/trash/"
 Entering Link 1 = /home/bing/src/g09_d.01/g09/l1.exe PID=      2788.
  
 Copyright (c) 1988,1990,1992,1993,1995,1998,2003,2009,2013,
            Gaussian, Inc.  All Rights Reserved.
  
 This is part of the Gaussian(R) 09 program.  It is based on
 the Gaussian(R) 03 system (copyright 2003, Gaussian, Inc.),
 the Gaussian(R) 98 system (copyright 1998, Gaussian, Inc.),
 the Gaussian(R) 94 system (copyright 1995, Gaussian, Inc.),
 the Gaussian 92(TM) system (copyright 1992, Gaussian, Inc.),
 the Gaussian 90(TM) system (copyright 1990, Gaussian, Inc.),
 the Gaussian 88(TM) system (copyright 1988, Gaussian, Inc.),
 the Gaussian 86(TM) system (copyright 1986, Carnegie Mellon
 University), and the Gaussian 82(TM) system (copyright 1983,
 Carnegie Mellon University). Gaussian is a federally registered
 trademark of Gaussian, Inc.
  
 This software contains proprietary and confidential information,
 including trade secrets, belonging to Gaussian, Inc.
  
 This software is provided under written license and may be
 used, copied, transmitted, or stored only in accord with that
 written license.
  
 The following legend is applicable only to US Government
 contracts under FAR:
  
                    RESTRICTED RIGHTS LEGEND
  
 Use, reproduction and disclosure by the US Government is
 subject to restrictions as set forth in subparagraphs (a)
 and (c) of the Commercial Computer Software - Restricted
 Rights clause in FAR 52.227-19.
  
 Gaussian, Inc.
 340 Quinnipiac St., Bldg. 40, Wallingford CT 06492
  
  
 ---------------------------------------------------------------
 Warning -- This program may not be used in any manner that
 competes with the business of Gaussian, Inc. or will provide
 assistance to any competitor of Gaussian, Inc.  The licensee
 of this program is prohibited from giving any competitor of
 Gaussian, Inc. access to this program.  By using this program,
 the user acknowledges that Gaussian, Inc. is engaged in the
 business of creating and licensing software in the field of
 computational chemistry and represents and warrants to the
 licensee that it is not a competitor of Gaussian, Inc. and that
 it will not use this program in any manner prohibited above.
 ---------------------------------------------------------------
  

 Cite this work as:
 Gaussian 09, Revision D.01,
 M. J. Frisch, G. W. Trucks, H. B. Schlegel, G. E. Scuseria, 
 M. A. Robb, J. R. Cheeseman, G. Scalmani, V. Barone, B. Mennucci, 
 G. A. Petersson, H. Nakatsuji, M. Caricato, X. Li, H. P. Hratchian, 
 A. F. Izmaylov, J. Bloino, G. Zheng, J. L. Sonnenberg, M. Hada, 
 M. Ehara, K. Toyota, R. Fukuda, J. Hasegawa, M. Ishida, T. Nakajima, 
 Y. Honda, O. Kitao, H. Nakai, T. Vreven, J. A. Montgomery, Jr., 
 J. E. Peralta, F. Ogliaro, M. Bearpark, J. J. Heyd, E. Brothers, 
 K. N. Kudin, V. N. Staroverov, T. Keith, R. Kobayashi, J. Normand, 
 K. Raghavachari, A. Rendell, J. C. Burant, S. S. Iyengar, J. Tomasi, 
 M. Cossi, N. Rega, J. M. Millam, M. Klene, J. E. Knox, J. B. Cross, 
 V. Bakken, C. Adamo, J. Jaramillo, R. Gomperts, R. E. Stratmann, 
 O. Yazyev, A. J. Austin, R. Cammi, C. Pomelli, J. W. Ochterski, 
 R. L. Martin, K. Morokuma, V. G. Zakrzewski, G. A. Voth, 
 P. Salvador, J. J. Dannenberg, S. Dapprich, A. D. Daniels, 
 O. Farkas, J. B. Foresman, J. V. Ortiz, J. Cioslowski, 
 and D. J. Fox, Gaussian, Inc., Wallingford CT, 2013.
 
 ******************************************
 Gaussian 09:  ES64L-G09RevD.01 24-Apr-2013
                25-Feb-2019 
 ******************************************
 %nproc=6
 Will use up to    6 processors via shared memory.
 -------------------------
 # opt(tight) b3lyp/sto-3g
 -------------------------
 1/7=10,14=-1,18=20,19=15,26=3,38=1/1,3;
 2/9=110,12=2,17=6,18=5,40=1/2;
 3/6=3,11=2,16=1,25=1,30=1,71=1,74=-5/1,2,3;
 4//1;
 5/5=2,38=5/2;
 6/7=2,8=2,9=2,10=2,28=1/1;
 7//1,2,3,16;
 1/7=10,14=-1,18=20,19=15,26=3/3(2);
 2/9=110/2;
 99//99;
 2/9=110/2;
 3/6=3,11=2,16=1,25=1,30=1,71=1,74=-5/1,2,3;
 4/5=5,16=3,69=1/1;
 5/5=2,38=5/2;
 7//1,2,3,16;
 1/7=10,14=-1,18=20,19=15,26=3/3(-5);
 2/9=110/2;
 6/7=2,8=2,9=2,10=2,19=2,28=1/1;
 99/9=1/99;
 ------
 c06h08
 ------
 Symbolic Z-matrix:
 Charge =  0 Multiplicity = 1
 C                     1.35732   1.01576  -0.56248 
 C                     2.53842   0.65326  -0.05675 
 C                     2.62783  -0.10716   1.20662 
 C                     3.8151   -0.4688    1.71039 
 C                     3.90454  -1.22922   2.97376 
 C                     5.08567  -1.59169   3.47946 
 H                     0.42853   0.7622   -0.05992 
 H                     1.31393   1.57412  -1.49203 
 H                     3.44495   0.92645  -0.59022 
 H                     1.71356  -0.37486   1.73157 
 H                     4.72937  -0.20109   1.18543 
 H                     2.99803  -1.50242   3.50725 
 H                     6.01443  -1.3381    2.97687 
 H                     5.1291   -2.15005   4.40901 
 

 GradGradGradGradGradGradGradGradGradGradGradGradGradGradGradGradGradGrad
 Berny optimization.
 Initialization pass.
                           ----------------------------
                           !    Initial Parameters    !
                           ! (Angstroms and Degrees)  !
 --------------------------                            --------------------------
 ! Name  Definition              Value          Derivative Info.                !
 --------------------------------------------------------------------------------
 ! R1    R(1,2)                  1.335          estimate D2E/DX2                !
 ! R2    R(1,7)                  1.0861         estimate D2E/DX2                !
 ! R3    R(1,8)                  1.0852         estimate D2E/DX2                !
 ! R4    R(2,3)                  1.4773         estimate D2E/DX2                !
 ! R5    R(2,9)                  1.0867         estimate D2E/DX2                !
 ! R6    R(3,4)                  1.3395         estimate D2E/DX2                !
 ! R7    R(3,10)                 1.0877         estimate D2E/DX2                !
 ! R8    R(4,5)                  1.4773         estimate D2E/DX2                !
 ! R9    R(4,11)                 1.0877         estimate D2E/DX2                !
 ! R10   R(5,6)                  1.335          estimate D2E/DX2                !
 ! R11   R(5,12)                 1.0867         estimate D2E/DX2                !
 ! R12   R(6,13)                 1.086          estimate D2E/DX2                !
 ! R13   R(6,14)                 1.0852         estimate D2E/DX2                !
 ! A1    A(2,1,7)              121.1933         estimate D2E/DX2                !
 ! A2    A(2,1,8)              119.9717         estimate D2E/DX2                !
 ! A3    A(7,1,8)              118.8351         estimate D2E/DX2                !
 ! A4    A(1,2,3)              121.1512         estimate D2E/DX2                !
 ! A5    A(1,2,9)              118.9334         estimate D2E/DX2                !
 ! A6    A(3,2,9)              119.9153         estimate D2E/DX2                !
 ! A7    A(2,3,4)              120.9481         estimate D2E/DX2                !
 ! A8    A(2,3,10)             119.2452         estimate D2E/DX2                !
 ! A9    A(4,3,10)             119.8067         estimate D2E/DX2                !
 ! A10   A(3,4,5)              120.9492         estimate D2E/DX2                !
 ! A11   A(3,4,11)             119.8061         estimate D2E/DX2                !
 ! A12   A(5,4,11)             119.2447         estimate D2E/DX2                !
 ! A13   A(4,5,6)              121.1502         estimate D2E/DX2                !
 ! A14   A(4,5,12)             119.9157         estimate D2E/DX2                !
 ! A15   A(6,5,12)             118.934          estimate D2E/DX2                !
 ! A16   A(5,6,13)             121.1927         estimate D2E/DX2                !
 ! A17   A(5,6,14)             119.9716         estimate D2E/DX2                !
 ! A18   A(13,6,14)            118.8357         estimate D2E/DX2                !
 ! D1    D(7,1,2,3)              0.0004         estimate D2E/DX2                !
 ! D2    D(7,1,2,9)           -179.9996         estimate D2E/DX2                !
 ! D3    D(8,1,2,3)            179.9999         estimate D2E/DX2                !
 ! D4    D(8,1,2,9)             -0.0001         estimate D2E/DX2                !
 ! D5    D(1,2,3,4)           -180.0            estimate D2E/DX2                !
 ! D6    D(1,2,3,10)             0.0            estimate D2E/DX2                !
 ! D7    D(9,2,3,4)              0.0            estimate D2E/DX2                !
 ! D8    D(9,2,3,10)          -180.0            estimate D2E/DX2                !
 ! D9    D(2,3,4,5)            179.9999         estimate D2E/DX2                !
 ! D10   D(2,3,4,11)             0.0002         estimate D2E/DX2                !
 ! D11   D(10,3,4,5)             0.0            estimate D2E/DX2                !
 ! D12   D(10,3,4,11)         -179.9998         estimate D2E/DX2                !
 ! D13   D(3,4,5,6)           -179.9994         estimate D2E/DX2                !
 ! D14   D(3,4,5,12)            -0.0001         estimate D2E/DX2                !
 ! D15   D(11,4,5,6)             0.0003         estimate D2E/DX2                !
 ! D16   D(11,4,5,12)          179.9996         estimate D2E/DX2                !
 ! D17   D(4,5,6,13)            -0.0004         estimate D2E/DX2                !
 ! D18   D(4,5,6,14)          -180.0            estimate D2E/DX2                !
 ! D19   D(12,5,6,13)         -179.9997         estimate D2E/DX2                !
 ! D20   D(12,5,6,14)            0.0007         estimate D2E/DX2                !
 --------------------------------------------------------------------------------
 Trust Radius=3.00D-01 FncErr=1.00D-07 GrdErr=1.00D-06
 Number of steps in this run=     61 maximum allowed number of steps=    100.
 GradGradGradGradGradGradGradGradGradGradGradGradGradGradGradGradGradGrad

                          Input orientation:                          
 ---------------------------------------------------------------------
 Center     Atomic      Atomic             Coordinates (Angstroms)
 Number     Number       Type             X           Y           Z
 ---------------------------------------------------------------------
      1          6           0        1.357320    1.015760   -0.562480
      2          6           0        2.538420    0.653260   -0.056750
      3          6           0        2.627830   -0.107160    1.206620
      4          6           0        3.815100   -0.468800    1.710390
      5          6           0        3.904540   -1.229220    2.973760
      6          6           0        5.085670   -1.591690    3.479460
      7          1           0        0.428530    0.762200   -0.059920
      8          1           0        1.313930    1.574120   -1.492030
      9          1           0        3.444950    0.926450   -0.590220
     10          1           0        1.713560   -0.374860    1.731570
     11          1           0        4.729370   -0.201090    1.185430
     12          1           0        2.998030   -1.502420    3.507250
     13          1           0        6.014430   -1.338100    2.976870
     14          1           0        5.129100   -2.150050    4.409010
 ---------------------------------------------------------------------
                    Distance matrix (angstroms):
                    1          2          3          4          5
     1  C    0.000000
     2  C    1.334978   0.000000
     3  C    2.450482   1.477273   0.000000
     4  C    3.662040   2.451880   1.339469   0.000000
     5  C    4.902373   3.820210   2.451895   1.477275   0.000000
     6  C    6.085776   4.902353   3.662050   2.450477   1.334985
     7  H    1.086053   2.112703   2.682691   4.014750   5.025098
     8  H    1.085224   2.099378   3.440312   4.548062   5.874798
     9  H    2.089724   1.086747   2.228154   2.715979   4.190476
    10  H    2.706177   2.221601   1.087716   2.103745   2.659579
    11  H    3.988312   2.659546   2.103745   1.087723   2.221603
    12  H    5.059235   4.190500   2.716008   2.228156   1.086743
    13  H    6.305262   5.025038   4.014730   2.682668   2.112700
    14  H    6.997456   5.874792   4.548082   3.440312   2.099385
                    6          7          8          9         10
     6  C    0.000000
     7  H    6.305312   0.000000
     8  H    6.997434   1.869248   0.000000
     9  H    5.059178   3.067081   2.402912   0.000000
    10  H    3.988348   2.480654   3.788116   3.175189   0.000000
    11  H    2.706158   4.579962   4.688858   2.464552   3.069784
    12  H    2.089733   4.945254   6.106889   4.784183   2.464608
    13  H    1.086048   6.695941   7.109627   4.945154   4.579966
    14  H    1.085226   7.109704   7.952813   6.106842   4.688912
                   11         12         13         14
    11  H    0.000000
    12  H    3.175192   0.000000
    13  H    2.480610   3.067079   0.000000
    14  H    3.788099   2.402926   1.869250   0.000000
 Stoichiometry    C6H8
 Framework group  C1[X(C6H8)]
 Deg. of freedom    36
 Full point group                 C1      NOp   1
 Largest Abelian subgroup         C1      NOp   1
 Largest concise Abelian subgroup C1      NOp   1
                         Standard orientation:                         
 ---------------------------------------------------------------------
 Center     Atomic      Atomic             Coordinates (Angstroms)
 Number     Number       Type             X           Y           Z
 ---------------------------------------------------------------------
      1          6           0        3.037290    0.184520    0.000002
      2          6           0        1.858318   -0.441733    0.000000
      3          6           0        0.590354    0.316293   -0.000002
      4          6           0       -0.590349   -0.316257   -0.000004
      5          6           0       -1.858330    0.441744   -0.000004
      6          6           0       -3.037284   -0.184556    0.000005
      7          1           0        3.098230    1.268861    0.000010
      8          1           0        3.957092   -0.391392    0.000004
      9          1           0        1.840170   -1.528328   -0.000002
     10          1           0        0.621236    1.403570   -0.000001
     11          1           0       -0.621220   -1.403542   -0.000002
     12          1           0       -1.840212    1.528336    0.000000
     13          1           0       -3.098174   -1.268896    0.000006
     14          1           0       -3.957110    0.391323    0.000004
 ---------------------------------------------------------------------
 Rotational constants (GHZ):     25.1033249      1.3616061      1.2915522
 Standard basis: STO-3G (5D, 7F)
 There are    38 symmetry adapted cartesian basis functions of A   symmetry.
 There are    38 symmetry adapted basis functions of A   symmetry.
    38 basis functions,   114 primitive gaussians,    38 cartesian basis functions
    22 alpha electrons       22 beta electrons
       nuclear repulsion energy       194.2373961199 Hartrees.
 NAtoms=   14 NActive=   14 NUniq=   14 SFac= 1.00D+00 NAtFMM=   60 NAOKFM=F Big=F
 Integral buffers will be    131072 words long.
 Raffenetti 2 integral format.
 Two-electron integral symmetry is turned on.
 One-electron integrals computed using PRISM.
 NBasis=    38 RedAO= T EigKep=  1.83D-01  NBF=    38
 NBsUse=    38 1.00D-06 EigRej= -1.00D+00 NBFU=    38
 ExpMin= 1.69D-01 ExpMax= 7.16D+01 ExpMxC= 7.16D+01 IAcc=1 IRadAn=         1 AccDes= 0.00D+00
 Harris functional with IExCor=  402 and IRadAn=       1 diagonalized for initial guess.
 HarFok:  IExCor=  402 AccDes= 0.00D+00 IRadAn=         1 IDoV= 1 UseB2=F ITyADJ=14
 ICtDFT=  3500011 ScaDFX=  1.000000  1.000000  1.000000  1.000000
 FoFCou: FMM=F IPFlag=           0 FMFlag=      100000 FMFlg1=           0
         NFxFlg=           0 DoJE=T BraDBF=F KetDBF=T FulRan=T
         wScrn=  0.000000 ICntrl=     500 IOpCl=  0 I1Cent=   200000004 NGrid=           0
         NMat0=    1 NMatS0=      1 NMatT0=    0 NMatD0=    1 NMtDS0=    0 NMtDT0=    0
 Petite list used in FoFCou.
 Keep R1 ints in memory in canonical form, NReq=1159285.
 Requested convergence on RMS density matrix=1.00D-08 within 128 cycles.
 Requested convergence on MAX density matrix=1.00D-06.
 Requested convergence on             energy=1.00D-06.
 No special actions if energy rises.
 Integral accuracy reduced to 1.0D-05 until final iterations.
 Initial convergence to 1.0D-05 achieved.  Increase integral accuracy.
 SCF Done:  E(RB3LYP) =  -230.527186382     A.U. after   11 cycles
            NFock= 11  Conv=0.61D-08     -V/T= 2.0155

 **********************************************************************

            Population analysis using the SCF density.

 **********************************************************************

 Orbital symmetries:
       Occupied  (A) (A) (A) (A) (A) (A) (A) (A) (A) (A) (A) (A)
                 (A) (A) (A) (A) (A) (A) (A) (A) (A) (A)
       Virtual   (A) (A) (A) (A) (A) (A) (A) (A) (A) (A) (A) (A)
                 (A) (A) (A) (A)
 The electronic state is 1-A.
 Alpha  occ. eigenvalues --  -10.00557 -10.00555 -10.00376 -10.00340  -9.98802
 Alpha  occ. eigenvalues --   -9.98802  -0.77465  -0.73455  -0.67894  -0.56856
 Alpha  occ. eigenvalues --   -0.52473  -0.51396  -0.44355  -0.42301  -0.38298
 Alpha  occ. eigenvalues --   -0.36265  -0.33471  -0.32756  -0.29765  -0.28809
 Alpha  occ. eigenvalues --   -0.23294  -0.15348
 Alpha virt. eigenvalues --    0.04497   0.14159   0.21506   0.34581   0.40392
 Alpha virt. eigenvalues --    0.41360   0.41858   0.43082   0.44072   0.44930
 Alpha virt. eigenvalues --    0.57368   0.60425   0.66445   0.68283   0.72987
 Alpha virt. eigenvalues --    0.78468
          Condensed to atoms (all electrons):
               1          2          3          4          5          6
     1  C    4.855516   0.584335  -0.031396   0.000857  -0.000009   0.000000
     2  C    0.584335   4.792703   0.422655  -0.030916   0.001023  -0.000009
     3  C   -0.031396   0.422655   4.813202   0.571570  -0.030915   0.000857
     4  C    0.000857  -0.030916   0.571570   4.813202   0.422654  -0.031396
     5  C   -0.000009   0.001023  -0.030915   0.422654   4.792705   0.584332
     6  C    0.000000  -0.000009   0.000857  -0.031396   0.584332   4.855518
     7  H    0.390180  -0.025366  -0.005255   0.000045  -0.000001   0.000000
     8  H    0.390717  -0.026060   0.001656  -0.000026   0.000000   0.000000
     9  H   -0.028390   0.390227  -0.022713  -0.003310   0.000007   0.000000
    10  H   -0.003314  -0.022873   0.389724  -0.027499  -0.005198   0.000046
    11  H    0.000046  -0.005199  -0.027499   0.389723  -0.022873  -0.003315
    12  H    0.000000   0.000007  -0.003310  -0.022713   0.390228  -0.028390
    13  H    0.000000  -0.000001   0.000045  -0.005255  -0.025366   0.390181
    14  H    0.000000   0.000000  -0.000026   0.001656  -0.026059   0.390717
               7          8          9         10         11         12
     1  C    0.390180   0.390717  -0.028390  -0.003314   0.000046   0.000000
     2  C   -0.025366  -0.026060   0.390227  -0.022873  -0.005199   0.000007
     3  C   -0.005255   0.001656  -0.022713   0.389724  -0.027499  -0.003310
     4  C    0.000045  -0.000026  -0.003310  -0.027499   0.389723  -0.022713
     5  C   -0.000001   0.000000   0.000007  -0.005198  -0.022873   0.390228
     6  C    0.000000   0.000000   0.000000   0.000046  -0.003315  -0.028390
     7  H    0.582000  -0.022721   0.002153   0.000873   0.000001   0.000000
     8  H   -0.022721   0.583542  -0.005296   0.000010  -0.000002   0.000000
     9  H    0.002153  -0.005296   0.584262   0.001388   0.000855  -0.000001
    10  H    0.000873   0.000010   0.001388   0.583331   0.002089   0.000854
    11  H    0.000001  -0.000002   0.000855   0.002089   0.583335   0.001388
    12  H    0.000000   0.000000  -0.000001   0.000854   0.001388   0.584259
    13  H    0.000000   0.000000   0.000000   0.000001   0.000873   0.002153
    14  H    0.000000   0.000000   0.000000  -0.000002   0.000010  -0.005296
              13         14
     1  C    0.000000   0.000000
     2  C   -0.000001   0.000000
     3  C    0.000045  -0.000026
     4  C   -0.005255   0.001656
     5  C   -0.025366  -0.026059
     6  C    0.390181   0.390717
     7  H    0.000000   0.000000
     8  H    0.000000   0.000000
     9  H    0.000000   0.000000
    10  H    0.000001  -0.000002
    11  H    0.000873   0.000010
    12  H    0.002153  -0.005296
    13  H    0.581998  -0.022721
    14  H   -0.022721   0.583542
 Mulliken charges:
               1
     1  C   -0.158541
     2  C   -0.080527
     3  C   -0.078593
     4  C   -0.078590
     5  C   -0.080528
     6  C   -0.158540
     7  H    0.078091
     8  H    0.078180
     9  H    0.080818
    10  H    0.080570
    11  H    0.080568
    12  H    0.080820
    13  H    0.078092
    14  H    0.078180
 Sum of Mulliken charges =   0.00000
 Mulliken charges with hydrogens summed into heavy atoms:
               1
     1  C   -0.002270
     2  C    0.000292
     3  C    0.001977
     4  C    0.001978
     5  C    0.000292
     6  C   -0.002268
 Electronic spatial extent (au):  <R**2>=            898.1407
 Charge=              0.0000 electrons
 Dipole moment (field-independent basis, Debye):
    X=              0.0000    Y=              0.0000    Z=              0.0000  Tot=              0.0000
 Quadrupole moment (field-independent basis, Debye-Ang):
   XX=            -32.7684   YY=            -31.3758   ZZ=            -36.8817
   XY=             -0.2280   XZ=              0.0000   YZ=              0.0000
 Traceless Quadrupole moment (field-independent basis, Debye-Ang):
   XX=              0.9069   YY=              2.2995   ZZ=             -3.2064
   XY=             -0.2280   XZ=              0.0000   YZ=              0.0000
 Octapole moment (field-independent basis, Debye-Ang**2):
  XXX=             -0.0003  YYY=              0.0000  ZZZ=              0.0000  XYY=              0.0001
  XXY=              0.0001  XXZ=              0.0001  XZZ=              0.0000  YZZ=              0.0000
  YYZ=              0.0000  XYZ=              0.0000
 Hexadecapole moment (field-independent basis, Debye-Ang**3):
 XXXX=           -980.1895 YYYY=            -88.7073 ZZZZ=            -29.8649 XXXY=            -12.3676
 XXXZ=              0.0002 YYYX=              1.7026 YYYZ=              0.0000 ZZZX=              0.0000
 ZZZY=              0.0000 XXYY=           -175.8062 XXZZ=           -189.4942 YYZZ=            -22.7672
 XXYZ=              0.0000 YYXZ=              0.0000 ZZXY=              0.1121
 N-N= 1.942373961199D+02 E-N=-9.218344479537D+02  KE= 2.270058431161D+02
 Calling FoFJK, ICntrl=      2127 FMM=F ISym2X=0 I1Cent= 0 IOpClX= 0 NMat=1 NMatS=1 NMatT=0.
 ***** Axes restored to original set *****
 -------------------------------------------------------------------
 Center     Atomic                   Forces (Hartrees/Bohr)
 Number     Number              X              Y              Z
 -------------------------------------------------------------------
      1        6          -0.001237084    0.003921475   -0.006448362
      2        6          -0.013501918   -0.004962006    0.009438066
      3        6           0.004884244    0.010625610   -0.018173511
      4        6          -0.004878573   -0.010625116    0.018172373
      5        6           0.013512210    0.004962853   -0.009438715
      6        6           0.001224322   -0.003920813    0.006448157
      7        1          -0.008452895   -0.000328559    0.001265350
      8        1          -0.005892527    0.004729750   -0.007405755
      9        1           0.011826114   -0.000459308   -0.000235289
     10        1          -0.009413837   -0.000218780    0.001163693
     11        1           0.009408848    0.000217080   -0.001160890
     12        1          -0.011828818    0.000457488    0.000237412
     13        1           0.008456676    0.000329064   -0.001266967
     14        1           0.005893236   -0.004728738    0.007404438
 -------------------------------------------------------------------
 Cartesian Forces:  Max     0.018173511 RMS     0.007674481

 GradGradGradGradGradGradGradGradGradGradGradGradGradGradGradGradGradGrad
 Berny optimization.
 FormGI is forming the generalized inverse of G from B-inverse, IUseBI=4.
 GSVD:  received Info=                   1 from GESDD.
 Internal  Forces:  Max     0.030575770 RMS     0.008581694
 Search for a local minimum.
 Step number   1 out of a maximum of   61
 All quantities printed in internal units (Hartrees-Bohrs-Radians)
 Mixed Optimization -- RFO/linear search
 Second derivative matrix not updated -- first step.
 ITU=  0
     Eigenvalues ---    0.01067   0.01067   0.01983   0.01983   0.01999
     Eigenvalues ---    0.01999   0.02889   0.02949   0.02949   0.02949
     Eigenvalues ---    0.02949   0.16000   0.16000   0.16000   0.16000
     Eigenvalues ---    0.16000   0.16000   0.16000   0.16000   0.22000
     Eigenvalues ---    0.22000   0.22000   0.22000   0.34883   0.34884
     Eigenvalues ---    0.35077   0.35078   0.35191   0.35192   0.35273
     Eigenvalues ---    0.35273   0.35370   0.35370   0.57324   0.58344
     Eigenvalues ---    0.58345
 RFO step:  Lambda=-1.10228738D-02 EMin= 1.06655374D-02
 Linear search not attempted -- first point.
 Iteration  1 RMS(Cart)=  0.06816549 RMS(Int)=  0.00049696
 Iteration  2 RMS(Cart)=  0.00068743 RMS(Int)=  0.00000012
 Iteration  3 RMS(Cart)=  0.00000024 RMS(Int)=  0.00000005
 Variable       Old X    -DE/DX   Delta X   Delta X   Delta X     New X
                                 (Linear)    (Quad)   (Total)
    R1        2.52274   0.02082   0.00000   0.03501   0.03501   2.55776
    R2        2.05234   0.00789   0.00000   0.02169   0.02169   2.07404
    R3        2.05078   0.00901   0.00000   0.02471   0.02471   2.07549
    R4        2.79164   0.00543   0.00000   0.01510   0.01510   2.80674
    R5        2.05365   0.00987   0.00000   0.02718   0.02718   2.08084
    R6        2.53123   0.03058   0.00000   0.05233   0.05233   2.58356
    R7        2.05548   0.00853   0.00000   0.02357   0.02357   2.07906
    R8        2.79165   0.00543   0.00000   0.01510   0.01510   2.80674
    R9        2.05550   0.00852   0.00000   0.02356   0.02356   2.07905
   R10        2.52276   0.02081   0.00000   0.03500   0.03500   2.55776
   R11        2.05365   0.00987   0.00000   0.02719   0.02719   2.08084
   R12        2.05233   0.00789   0.00000   0.02170   0.02170   2.07404
   R13        2.05078   0.00901   0.00000   0.02471   0.02471   2.07549
    A1        2.11522   0.00073   0.00000   0.00425   0.00425   2.11947
    A2        2.09390   0.00532   0.00000   0.03110   0.03110   2.12500
    A3        2.07406  -0.00605   0.00000  -0.03535  -0.03535   2.03871
    A4        2.11449   0.01169   0.00000   0.05059   0.05059   2.16508
    A5        2.07578   0.00087   0.00000   0.01399   0.01399   2.08977
    A6        2.09292  -0.01256   0.00000  -0.06458  -0.06458   2.02834
    A7        2.11094   0.01258   0.00000   0.05445   0.05445   2.16539
    A8        2.08122  -0.01056   0.00000  -0.05221  -0.05221   2.02901
    A9        2.09102  -0.00202   0.00000  -0.00223  -0.00223   2.08879
   A10        2.11096   0.01258   0.00000   0.05443   0.05443   2.16540
   A11        2.09101  -0.00201   0.00000  -0.00223  -0.00223   2.08879
   A12        2.08121  -0.01056   0.00000  -0.05221  -0.05221   2.02900
   A13        2.11447   0.01169   0.00000   0.05060   0.05060   2.16507
   A14        2.09292  -0.01256   0.00000  -0.06458  -0.06458   2.02835
   A15        2.07579   0.00087   0.00000   0.01398   0.01398   2.08977
   A16        2.11521   0.00073   0.00000   0.00426   0.00426   2.11947
   A17        2.09390   0.00532   0.00000   0.03110   0.03110   2.12500
   A18        2.07407  -0.00605   0.00000  -0.03536  -0.03536   2.03872
    D1        0.00001   0.00000   0.00000  -0.00001  -0.00001   0.00000
    D2       -3.14159   0.00000   0.00000  -0.00001  -0.00001   3.14159
    D3        3.14159   0.00000   0.00000   0.00000   0.00000  -3.14159
    D4        0.00000   0.00000   0.00000   0.00000   0.00000   0.00000
    D5       -3.14159   0.00000   0.00000   0.00000   0.00000   3.14159
    D6        0.00000   0.00000   0.00000   0.00000   0.00000   0.00000
    D7        0.00000   0.00000   0.00000   0.00000   0.00000   0.00000
    D8       -3.14159   0.00000   0.00000   0.00000   0.00000  -3.14159
    D9        3.14159   0.00000   0.00000   0.00000   0.00000   3.14159
   D10        0.00000   0.00000   0.00000   0.00000   0.00000   0.00000
   D11        0.00000   0.00000   0.00000   0.00000   0.00000   0.00000
   D12       -3.14159   0.00000   0.00000   0.00000   0.00000   3.14159
   D13       -3.14158   0.00000   0.00000  -0.00001  -0.00001  -3.14159
   D14        0.00000   0.00000   0.00000   0.00000   0.00000   0.00000
   D15        0.00001   0.00000   0.00000   0.00000   0.00000   0.00000
   D16        3.14159   0.00000   0.00000   0.00001   0.00001  -3.14159
   D17       -0.00001   0.00000   0.00000   0.00001   0.00001   0.00000
   D18       -3.14159   0.00000   0.00000   0.00000   0.00000   3.14159
   D19       -3.14159   0.00000   0.00000   0.00000  -0.00001  -3.14159
   D20        0.00001   0.00000   0.00000  -0.00001  -0.00001   0.00000
         Item               Value     Threshold  Converged?
 Maximum Force            0.030576     0.000015     NO 
 RMS     Force            0.008582     0.000010     NO 
 Maximum Displacement     0.138597     0.000060     NO 
 RMS     Displacement     0.067868     0.000040     NO 
 Predicted change in Energy=-5.732490D-03
 GradGradGradGradGradGradGradGradGradGradGradGradGradGradGradGradGradGrad

                          Input orientation:                          
 ---------------------------------------------------------------------
 Center     Atomic      Atomic             Coordinates (Angstroms)
 Number     Number       Type             X           Y           Z
 ---------------------------------------------------------------------
      1          6           0        1.308362    1.049221   -0.614255
      2          6           0        2.491742    0.668753   -0.078683
      3          6           0        2.623923   -0.095728    1.187850
      4          6           0        3.819035   -0.480220    1.729152
      5          6           0        3.951225   -1.244700    2.995683
      6          6           0        5.134612   -1.625159    3.531243
      7          1           0        0.355194    0.806285   -0.127398
      8          1           0        1.254484    1.614450   -1.554403
      9          1           0        3.431463    0.927577   -0.590956
     10          1           0        1.685387   -0.354667    1.700214
     11          1           0        4.757568   -0.221280    1.216787
     12          1           0        3.011509   -1.503531    3.507965
     13          1           0        6.087772   -1.382214    3.044373
     14          1           0        5.188503   -2.190388    4.471389
 ---------------------------------------------------------------------
                    Distance matrix (angstroms):
                    1          2          3          4          5
     1  C    0.000000
     2  C    1.353507   0.000000
     3  C    2.507826   1.485264   0.000000
     4  C    3.759551   2.519943   1.367162   0.000000
     5  C    5.027768   3.904244   2.519946   1.485263   0.000000
     6  C    6.243208   5.027759   3.759549   2.507820   1.353506
     7  H    1.097532   2.141524   2.773200   4.135223   5.185713
     8  H    1.098301   2.145436   3.509989   4.663292   6.012523
     9  H    2.126710   1.101131   2.205318   2.741351   4.225272
    10  H    2.733096   2.205010   1.100189   2.137534   2.757611
    11  H    4.106569   2.757602   2.137532   1.100188   2.205006
    12  H    5.139062   4.225284   2.741362   2.205321   1.101132
    13  H    6.491548   5.185690   4.135211   2.773188   2.141522
    14  H    7.170379   6.012517   4.663293   3.509984   2.145435
                    6          7          8          9         10
     6  C    0.000000
     7  H    6.491565   0.000000
     8  H    7.170373   1.870346   0.000000
     9  H    5.139037   3.113363   2.477753   0.000000
    10  H    4.106577   2.541139   3.828267   3.153156   0.000000
    11  H    2.733083   4.716315   4.829181   2.519199   3.112843
    12  H    2.126711   5.060349   6.199719   4.784120   2.519217
    13  H    1.097533   6.907395   7.313645   5.060309   4.716313
    14  H    1.098300   7.313670   8.140237   6.199697   4.829193
                   11         12         13         14
    11  H    0.000000
    12  H    3.153156   0.000000
    13  H    2.541118   3.113363   0.000000
    14  H    3.828254   2.477753   1.870349   0.000000
 Stoichiometry    C6H8
 Framework group  C1[X(C6H8)]
 Deg. of freedom    36
 Full point group                 C1      NOp   1
 Largest Abelian subgroup         C1      NOp   1
 Largest concise Abelian subgroup C1      NOp   1
                         Standard orientation:                         
 ---------------------------------------------------------------------
 Center     Atomic      Atomic             Coordinates (Angstroms)
 Number     Number       Type             X           Y           Z
 ---------------------------------------------------------------------
      1          6           0        3.116824    0.172720    0.000000
      2          6           0        1.904406   -0.428963    0.000000
      3          6           0        0.612420    0.303691    0.000000
      4          6           0       -0.612421   -0.303679   -0.000001
      5          6           0       -1.904410    0.428967   -0.000001
      6          6           0       -3.116820   -0.172732    0.000001
      7          1           0        3.213303    1.266004    0.000001
      8          1           0        4.049729   -0.406894   -0.000001
      9          1           0        1.840231   -1.528223   -0.000001
     10          1           0        0.675808    1.402052    0.000000
     11          1           0       -0.675806   -1.402040   -0.000001
     12          1           0       -1.840247    1.528228   -0.000001
     13          1           0       -3.213281   -1.266018    0.000001
     14          1           0       -4.049731    0.406871    0.000001
 ---------------------------------------------------------------------
 Rotational constants (GHZ):     25.8156254      1.2931481      1.2314621
 Standard basis: STO-3G (5D, 7F)
 There are    38 symmetry adapted cartesian basis functions of A   symmetry.
 There are    38 symmetry adapted basis functions of A   symmetry.
    38 basis functions,   114 primitive gaussians,    38 cartesian basis functions
    22 alpha electrons       22 beta electrons
       nuclear repulsion energy       190.9798974203 Hartrees.
 NAtoms=   14 NActive=   14 NUniq=   14 SFac= 1.00D+00 NAtFMM=   60 NAOKFM=F Big=F
 Integral buffers will be    131072 words long.
 Raffenetti 2 integral format.
 Two-electron integral symmetry is turned on.
 One-electron integrals computed using PRISM.
 NBasis=    38 RedAO= T EigKep=  1.96D-01  NBF=    38
 NBsUse=    38 1.00D-06 EigRej= -1.00D+00 NBFU=    38
 Initial guess from the checkpoint file:  "/data/trash/Gau-2788.chk"
 B after Tr=     0.000000    0.000000    0.000000
         Rot=    0.999999    0.000000    0.000000    0.001622 Ang=   0.19 deg.
 ExpMin= 1.69D-01 ExpMax= 7.16D+01 ExpMxC= 7.16D+01 IAcc=1 IRadAn=         1 AccDes= 0.00D+00
 Harris functional with IExCor=  402 and IRadAn=       1 diagonalized for initial guess.
 HarFok:  IExCor=  402 AccDes= 0.00D+00 IRadAn=         1 IDoV= 1 UseB2=F ITyADJ=14
 ICtDFT=  3500011 ScaDFX=  1.000000  1.000000  1.000000  1.000000
 FoFCou: FMM=F IPFlag=           0 FMFlag=      100000 FMFlg1=           0
         NFxFlg=           0 DoJE=T BraDBF=F KetDBF=T FulRan=T
         wScrn=  0.000000 ICntrl=     500 IOpCl=  0 I1Cent=   200000004 NGrid=           0
         NMat0=    1 NMatS0=      1 NMatT0=    0 NMatD0=    1 NMtDS0=    0 NMtDT0=    0
 Petite list used in FoFCou.
 Keep R1 ints in memory in canonical form, NReq=1159285.
 Requested convergence on RMS density matrix=1.00D-08 within 128 cycles.
 Requested convergence on MAX density matrix=1.00D-06.
 Requested convergence on             energy=1.00D-06.
 No special actions if energy rises.
 Integral accuracy reduced to 1.0D-05 until final iterations.
 Initial convergence to 1.0D-05 achieved.  Increase integral accuracy.
 SCF Done:  E(RB3LYP) =  -230.531756174     A.U. after   10 cycles
            NFock= 10  Conv=0.51D-08     -V/T= 2.0166
 Calling FoFJK, ICntrl=      2127 FMM=F ISym2X=0 I1Cent= 0 IOpClX= 0 NMat=1 NMatS=1 NMatT=0.
 ***** Axes restored to original set *****
 -------------------------------------------------------------------
 Center     Atomic                   Forces (Hartrees/Bohr)
 Number     Number              X              Y              Z
 -------------------------------------------------------------------
      1        6           0.006649885   -0.002051418    0.002864777
      2        6          -0.004650820    0.000313786   -0.000130276
      3        6           0.006590569   -0.000481903    0.000246638
      4        6          -0.006591661    0.000481930   -0.000246591
      5        6           0.004649845   -0.000313620    0.000130197
      6        6          -0.006649101    0.002051183   -0.002864783
      7        1           0.000183328    0.000359005   -0.000615538
      8        1          -0.000132899   -0.000875457    0.001474571
      9        1          -0.000378630   -0.000170912    0.000317823
     10        1           0.000229345   -0.000338736    0.000546736
     11        1          -0.000228541    0.000339000   -0.000547208
     12        1           0.000379017    0.000171144   -0.000318263
     13        1          -0.000183655   -0.000359367    0.000616242
     14        1           0.000133319    0.000875366   -0.001474326
 -------------------------------------------------------------------
 Cartesian Forces:  Max     0.006649885 RMS     0.002452868

 GradGradGradGradGradGradGradGradGradGradGradGradGradGradGradGradGradGrad
 Berny optimization.
 Using GEDIIS/GDIIS optimizer.
 FormGI is forming the generalized inverse of G from B-inverse, IUseBI=4.
 Internal  Forces:  Max     0.010192818 RMS     0.002403189
 Search for a local minimum.
 Step number   2 out of a maximum of   61
 All quantities printed in internal units (Hartrees-Bohrs-Radians)
 Mixed Optimization -- RFO/linear search
 Update second derivatives using D2CorX and points    1    2
 DE= -4.57D-03 DEPred=-5.73D-03 R= 7.97D-01
 TightC=F SS=  1.41D+00  RLast= 2.00D-01 DXNew= 5.0454D-01 6.0081D-01
 Trust test= 7.97D-01 RLast= 2.00D-01 DXMaxT set to 5.05D-01
 ITU=  1  0
 Use linear search instead of GDIIS.
     Eigenvalues ---    0.01067   0.01067   0.02007   0.02007   0.02038
     Eigenvalues ---    0.02038   0.02889   0.02949   0.02949   0.02949
     Eigenvalues ---    0.02949   0.15611   0.16000   0.16000   0.16000
     Eigenvalues ---    0.16000   0.16000   0.16000   0.16153   0.21943
     Eigenvalues ---    0.22000   0.22000   0.22217   0.34296   0.34884
     Eigenvalues ---    0.35078   0.35113   0.35192   0.35237   0.35273
     Eigenvalues ---    0.35307   0.35370   0.36590   0.57761   0.58344
     Eigenvalues ---    0.68725
 RFO step:  Lambda=-2.43276725D-04 EMin= 1.06655374D-02
 Quartic linear search produced a step of -0.13838.
 Iteration  1 RMS(Cart)=  0.01221689 RMS(Int)=  0.00000630
 Iteration  2 RMS(Cart)=  0.00000821 RMS(Int)=  0.00000001
 Iteration  3 RMS(Cart)=  0.00000000 RMS(Int)=  0.00000001
 Variable       Old X    -DE/DX   Delta X   Delta X   Delta X     New X
                                 (Linear)    (Quad)   (Total)
    R1        2.55776  -0.00805  -0.00485  -0.00633  -0.01118   2.54658
    R2        2.07404  -0.00051  -0.00300   0.00219  -0.00081   2.07322
    R3        2.07549  -0.00171  -0.00342  -0.00024  -0.00366   2.07182
    R4        2.80674  -0.00474  -0.00209  -0.00930  -0.01139   2.79535
    R5        2.08084  -0.00051  -0.00376   0.00305  -0.00071   2.08012
    R6        2.58356  -0.01019  -0.00724  -0.00702  -0.01426   2.56931
    R7        2.07906   0.00014  -0.00326   0.00407   0.00081   2.07987
    R8        2.80674  -0.00474  -0.00209  -0.00930  -0.01139   2.79535
    R9        2.07905   0.00014  -0.00326   0.00407   0.00081   2.07987
   R10        2.55776  -0.00805  -0.00484  -0.00633  -0.01117   2.54658
   R11        2.08084  -0.00051  -0.00376   0.00305  -0.00071   2.08012
   R12        2.07404  -0.00051  -0.00300   0.00219  -0.00081   2.07322
   R13        2.07549  -0.00171  -0.00342  -0.00024  -0.00366   2.07182
    A1        2.11947   0.00058  -0.00059   0.00377   0.00318   2.12266
    A2        2.12500  -0.00006  -0.00430   0.00458   0.00027   2.12527
    A3        2.03871  -0.00052   0.00489  -0.00835  -0.00346   2.03525
    A4        2.16508  -0.00071  -0.00700   0.00519  -0.00181   2.16327
    A5        2.08977   0.00047  -0.00194   0.00421   0.00227   2.09204
    A6        2.02834   0.00024   0.00894  -0.00940  -0.00046   2.02788
    A7        2.16539  -0.00123  -0.00753   0.00380  -0.00374   2.16165
    A8        2.02901   0.00131   0.00723  -0.00209   0.00513   2.03414
    A9        2.08879  -0.00008   0.00031  -0.00170  -0.00139   2.08739
   A10        2.16540  -0.00123  -0.00753   0.00379  -0.00374   2.16165
   A11        2.08879  -0.00008   0.00031  -0.00170  -0.00139   2.08739
   A12        2.02900   0.00131   0.00722  -0.00209   0.00513   2.03414
   A13        2.16507  -0.00071  -0.00700   0.00520  -0.00180   2.16327
   A14        2.02835   0.00024   0.00894  -0.00940  -0.00047   2.02788
   A15        2.08977   0.00047  -0.00193   0.00420   0.00227   2.09204
   A16        2.11947   0.00058  -0.00059   0.00378   0.00319   2.12266
   A17        2.12500  -0.00006  -0.00430   0.00458   0.00027   2.12527
   A18        2.03872  -0.00052   0.00489  -0.00835  -0.00346   2.03526
    D1        0.00000   0.00000   0.00000   0.00000   0.00000   0.00000
    D2        3.14159   0.00000   0.00000   0.00000   0.00000  -3.14159
    D3       -3.14159   0.00000   0.00000   0.00000   0.00000   3.14159
    D4        0.00000   0.00000   0.00000   0.00000   0.00000   0.00000
    D5        3.14159   0.00000   0.00000   0.00000   0.00000   3.14159
    D6        0.00000   0.00000   0.00000   0.00000   0.00000   0.00000
    D7        0.00000   0.00000   0.00000   0.00000   0.00000   0.00000
    D8       -3.14159   0.00000   0.00000   0.00000   0.00000   3.14159
    D9        3.14159   0.00000   0.00000   0.00000   0.00000   3.14159
   D10        0.00000   0.00000   0.00000   0.00000   0.00000   0.00000
   D11        0.00000   0.00000   0.00000   0.00000   0.00000   0.00000
   D12        3.14159   0.00000   0.00000   0.00000   0.00000   3.14159
   D13       -3.14159   0.00000   0.00000   0.00000   0.00000  -3.14159
   D14        0.00000   0.00000   0.00000   0.00000   0.00000   0.00000
   D15        0.00000   0.00000   0.00000   0.00000   0.00000   0.00000
   D16       -3.14159   0.00000   0.00000   0.00000   0.00000  -3.14159
   D17        0.00000   0.00000   0.00000   0.00000   0.00000   0.00000
   D18        3.14159   0.00000   0.00000   0.00000   0.00000   3.14159
   D19       -3.14159   0.00000   0.00000   0.00000   0.00000   3.14159
   D20        0.00000   0.00000   0.00000   0.00000   0.00000   0.00000
         Item               Value     Threshold  Converged?
 Maximum Force            0.010193     0.000015     NO 
 RMS     Force            0.002403     0.000010     NO 
 Maximum Displacement     0.023033     0.000060     NO 
 RMS     Displacement     0.012213     0.000040     NO 
 Predicted change in Energy=-2.386894D-04
 GradGradGradGradGradGradGradGradGradGradGradGradGradGradGradGradGradGrad

                          Input orientation:                          
 ---------------------------------------------------------------------
 Center     Atomic      Atomic             Coordinates (Angstroms)
 Number     Number       Type             X           Y           Z
 ---------------------------------------------------------------------
      1          6           0        1.318282    1.042449   -0.603778
      2          6           0        2.496787    0.663907   -0.071012
      3          6           0        2.626441   -0.097487    1.190577
      4          6           0        3.816523   -0.478457    1.726420
      5          6           0        3.946181   -1.239852    2.988009
      6          6           0        5.124689   -1.618390    3.520770
      7          1           0        0.364011    0.801001   -0.119315
      8          1           0        1.263704    1.606690   -1.542214
      9          1           0        3.437224    0.921727   -0.581666
     10          1           0        1.689709   -0.358431    1.706138
     11          1           0        4.753254   -0.217514    1.210859
     12          1           0        3.005747   -1.497674    3.498666
     13          1           0        6.078957   -1.376938    3.036302
     14          1           0        5.179273   -2.182631    4.459206
 ---------------------------------------------------------------------
                    Distance matrix (angstroms):
                    1          2          3          4          5
     1  C    0.000000
     2  C    1.347593   0.000000
     3  C    2.496086   1.479236   0.000000
     4  C    3.739543   2.505486   1.359618   0.000000
     5  C    5.001568   3.883639   2.505488   1.479236   0.000000
     6  C    6.211335   5.001564   3.739543   2.496084   1.347593
     7  H    1.097103   2.137723   2.764361   4.118688   5.162605
     8  H    1.096362   2.138637   3.497059   4.642057   5.985098
     9  H    2.122493   1.100754   2.199321   2.726104   4.204050
    10  H    2.726927   2.203364   1.100619   2.130295   2.740760
    11  H    4.084048   2.740756   2.130294   1.100618   2.203362
    12  H    5.111732   4.204055   2.726109   2.199322   1.100754
    13  H    6.462789   5.162596   4.118684   2.764356   2.137723
    14  H    7.137380   5.985097   4.642058   3.497058   2.138637
                    6          7          8          9         10
     6  C    0.000000
     7  H    6.462796   0.000000
     8  H    7.137377   1.866340   0.000000
     9  H    5.111723   3.110142   2.473057   0.000000
    10  H    4.084051   2.536540   3.820336   3.150660   0.000000
    11  H    2.726923   4.698105   4.804590   2.498590   3.106521
    12  H    2.122493   5.035123   6.171082   4.763274   2.498597
    13  H    1.097103   6.882002   7.283646   5.035107   4.698105
    14  H    1.096362   7.283657   8.106026   6.171074   4.804596
                   11         12         13         14
    11  H    0.000000
    12  H    3.150660   0.000000
    13  H    2.536532   3.110141   0.000000
    14  H    3.820332   2.473058   1.866340   0.000000
 Stoichiometry    C6H8
 Framework group  C1[X(C6H8)]
 Deg. of freedom    36
 Full point group                 C1      NOp   1
 Largest Abelian subgroup         C1      NOp   1
 Largest concise Abelian subgroup C1      NOp   1
                         Standard orientation:                         
 ---------------------------------------------------------------------
 Center     Atomic      Atomic             Coordinates (Angstroms)
 Number     Number       Type             X           Y           Z
 ---------------------------------------------------------------------
      1          6           0        3.100906    0.171916    0.000000
      2          6           0        1.894110   -0.427791    0.000000
      3          6           0        0.608292    0.303517    0.000000
      4          6           0       -0.608292   -0.303512    0.000000
      5          6           0       -1.894112    0.427793    0.000000
      6          6           0       -3.100905   -0.171921    0.000000
      7          1           0        3.200236    1.264514    0.000000
      8          1           0        4.032635   -0.405916    0.000000
      9          1           0        1.828056   -1.526562    0.000000
     10          1           0        0.667455    1.402544    0.000000
     11          1           0       -0.667453   -1.402539   -0.000001
     12          1           0       -1.828063    1.526563   -0.000001
     13          1           0       -3.200228   -1.264519    0.000001
     14          1           0       -4.032637    0.405906    0.000000
 ---------------------------------------------------------------------
 Rotational constants (GHZ):     25.8816888      1.3065025      1.2437198
 Standard basis: STO-3G (5D, 7F)
 There are    38 symmetry adapted cartesian basis functions of A   symmetry.
 There are    38 symmetry adapted basis functions of A   symmetry.
    38 basis functions,   114 primitive gaussians,    38 cartesian basis functions
    22 alpha electrons       22 beta electrons
       nuclear repulsion energy       191.7458520983 Hartrees.
 NAtoms=   14 NActive=   14 NUniq=   14 SFac= 1.00D+00 NAtFMM=   60 NAOKFM=F Big=F
 Integral buffers will be    131072 words long.
 Raffenetti 2 integral format.
 Two-electron integral symmetry is turned on.
 One-electron integrals computed using PRISM.
 NBasis=    38 RedAO= T EigKep=  1.93D-01  NBF=    38
 NBsUse=    38 1.00D-06 EigRej= -1.00D+00 NBFU=    38
 Initial guess from the checkpoint file:  "/data/trash/Gau-2788.chk"
 B after Tr=     0.000000    0.000000    0.000000
         Rot=    1.000000    0.000000    0.000000   -0.000002 Ang=   0.00 deg.
 ExpMin= 1.69D-01 ExpMax= 7.16D+01 ExpMxC= 7.16D+01 IAcc=1 IRadAn=         1 AccDes= 0.00D+00
 Harris functional with IExCor=  402 and IRadAn=       1 diagonalized for initial guess.
 HarFok:  IExCor=  402 AccDes= 0.00D+00 IRadAn=         1 IDoV= 1 UseB2=F ITyADJ=14
 ICtDFT=  3500011 ScaDFX=  1.000000  1.000000  1.000000  1.000000
 FoFCou: FMM=F IPFlag=           0 FMFlag=      100000 FMFlg1=           0
         NFxFlg=           0 DoJE=T BraDBF=F KetDBF=T FulRan=T
         wScrn=  0.000000 ICntrl=     500 IOpCl=  0 I1Cent=   200000004 NGrid=           0
         NMat0=    1 NMatS0=      1 NMatT0=    0 NMatD0=    1 NMtDS0=    0 NMtDT0=    0
 Petite list used in FoFCou.
 Keep R1 ints in memory in canonical form, NReq=1159285.
 Requested convergence on RMS density matrix=1.00D-08 within 128 cycles.
 Requested convergence on MAX density matrix=1.00D-06.
 Requested convergence on             energy=1.00D-06.
 No special actions if energy rises.
 Integral accuracy reduced to 1.0D-05 until final iterations.
 Initial convergence to 1.0D-05 achieved.  Increase integral accuracy.
 SCF Done:  E(RB3LYP) =  -230.532002865     A.U. after   10 cycles
            NFock= 10  Conv=0.85D-09     -V/T= 2.0164
 Calling FoFJK, ICntrl=      2127 FMM=F ISym2X=0 I1Cent= 0 IOpClX= 0 NMat=1 NMatS=1 NMatT=0.
 ***** Axes restored to original set *****
 -------------------------------------------------------------------
 Center     Atomic                   Forces (Hartrees/Bohr)
 Number     Number              X              Y              Z
 -------------------------------------------------------------------
      1        6           0.000533450   -0.000120696    0.000156532
      2        6          -0.000237415    0.000313490   -0.000503783
      3        6           0.000156701   -0.000249287    0.000403325
      4        6          -0.000156784    0.000249259   -0.000403316
      5        6           0.000237342   -0.000313453    0.000503766
      6        6          -0.000533462    0.000120719   -0.000156549
      7        1           0.000088260    0.000143599   -0.000247510
      8        1          -0.000227466   -0.000052314    0.000106706
      9        1          -0.000265652   -0.000077248    0.000151611
     10        1           0.000354622    0.000008707   -0.000044617
     11        1          -0.000354548   -0.000008660    0.000044548
     12        1           0.000265631    0.000077288   -0.000151676
     13        1          -0.000088207   -0.000143680    0.000247635
     14        1           0.000227527    0.000052277   -0.000106673
 -------------------------------------------------------------------
 Cartesian Forces:  Max     0.000533462 RMS     0.000254888

 GradGradGradGradGradGradGradGradGradGradGradGradGradGradGradGradGradGrad
 Berny optimization.
 Using GEDIIS/GDIIS optimizer.
 FormGI is forming the generalized inverse of G from B-inverse, IUseBI=4.
 GSVD:  received Info=                   1 from GESDD.
 Internal  Forces:  Max     0.000398351 RMS     0.000186489
 Search for a local minimum.
 Step number   3 out of a maximum of   61
 All quantities printed in internal units (Hartrees-Bohrs-Radians)
 Mixed Optimization -- En-DIIS/RFO-DIIS
 Update second derivatives using D2CorX and points    1    2    3
 DE= -2.47D-04 DEPred=-2.39D-04 R= 1.03D+00
 TightC=F SS=  1.41D+00  RLast= 2.98D-02 DXNew= 8.4853D-01 8.9460D-02
 Trust test= 1.03D+00 RLast= 2.98D-02 DXMaxT set to 5.05D-01
 ITU=  1  1  0
 Use linear search instead of GDIIS.
     Eigenvalues ---    0.01067   0.01067   0.02004   0.02004   0.02040
     Eigenvalues ---    0.02040   0.02889   0.02949   0.02949   0.02949
     Eigenvalues ---    0.02949   0.15283   0.16000   0.16000   0.16000
     Eigenvalues ---    0.16000   0.16000   0.16024   0.16089   0.21879
     Eigenvalues ---    0.22000   0.22000   0.22177   0.34884   0.35013
     Eigenvalues ---    0.35078   0.35153   0.35192   0.35252   0.35273
     Eigenvalues ---    0.35318   0.35370   0.37535   0.57765   0.58344
     Eigenvalues ---    0.65756
 RFO step:  Lambda=-6.22453458D-06 EMin= 1.06655374D-02
 Quartic linear search produced a step of  0.01806.
 Iteration  1 RMS(Cart)=  0.00127395 RMS(Int)=  0.00000065
 Iteration  2 RMS(Cart)=  0.00000075 RMS(Int)=  0.00000000
 Variable       Old X    -DE/DX   Delta X   Delta X   Delta X     New X
                                 (Linear)    (Quad)   (Total)
    R1        2.54658  -0.00036  -0.00020  -0.00052  -0.00072   2.54586
    R2        2.07322  -0.00022  -0.00001  -0.00060  -0.00061   2.07261
    R3        2.07182  -0.00011  -0.00007  -0.00027  -0.00033   2.07149
    R4        2.79535   0.00040  -0.00021   0.00125   0.00104   2.79640
    R5        2.08012  -0.00032  -0.00001  -0.00089  -0.00090   2.07922
    R6        2.56931  -0.00037  -0.00026  -0.00051  -0.00077   2.56853
    R7        2.07987  -0.00032   0.00001  -0.00092  -0.00091   2.07896
    R8        2.79535   0.00040  -0.00021   0.00125   0.00104   2.79640
    R9        2.07987  -0.00032   0.00001  -0.00092  -0.00091   2.07896
   R10        2.54658  -0.00036  -0.00020  -0.00052  -0.00072   2.54586
   R11        2.08012  -0.00032  -0.00001  -0.00089  -0.00090   2.07922
   R12        2.07322  -0.00022  -0.00001  -0.00060  -0.00061   2.07261
   R13        2.07182  -0.00011  -0.00007  -0.00027  -0.00033   2.07149
    A1        2.12266   0.00012   0.00006   0.00074   0.00080   2.12346
    A2        2.12527   0.00018   0.00000   0.00120   0.00121   2.12648
    A3        2.03525  -0.00030  -0.00006  -0.00195  -0.00201   2.03325
    A4        2.16327   0.00023  -0.00003   0.00112   0.00109   2.16436
    A5        2.09204  -0.00011   0.00004  -0.00049  -0.00045   2.09159
    A6        2.02788  -0.00012  -0.00001  -0.00063  -0.00064   2.02724
    A7        2.16165   0.00003  -0.00007   0.00019   0.00013   2.16178
    A8        2.03414   0.00014   0.00009   0.00086   0.00095   2.03509
    A9        2.08739  -0.00017  -0.00003  -0.00105  -0.00107   2.08632
   A10        2.16165   0.00003  -0.00007   0.00019   0.00012   2.16178
   A11        2.08739  -0.00017  -0.00003  -0.00105  -0.00107   2.08632
   A12        2.03414   0.00014   0.00009   0.00086   0.00095   2.03509
   A13        2.16327   0.00023  -0.00003   0.00113   0.00109   2.16436
   A14        2.02788  -0.00012  -0.00001  -0.00063  -0.00064   2.02724
   A15        2.09204  -0.00011   0.00004  -0.00049  -0.00045   2.09159
   A16        2.12266   0.00012   0.00006   0.00074   0.00080   2.12346
   A17        2.12527   0.00018   0.00000   0.00120   0.00121   2.12648
   A18        2.03526  -0.00030  -0.00006  -0.00195  -0.00201   2.03325
    D1        0.00000   0.00000   0.00000   0.00000   0.00000   0.00000
    D2       -3.14159   0.00000   0.00000   0.00000   0.00000   3.14159
    D3        3.14159   0.00000   0.00000   0.00000   0.00000  -3.14159
    D4        0.00000   0.00000   0.00000   0.00000   0.00000   0.00000
    D5        3.14159   0.00000   0.00000   0.00000   0.00000   3.14159
    D6        0.00000   0.00000   0.00000   0.00000   0.00000   0.00000
    D7        0.00000   0.00000   0.00000   0.00000   0.00000   0.00000
    D8        3.14159   0.00000   0.00000   0.00000   0.00000  -3.14159
    D9        3.14159   0.00000   0.00000   0.00000   0.00000   3.14159
   D10        0.00000   0.00000   0.00000   0.00000   0.00000   0.00000
   D11        0.00000   0.00000   0.00000   0.00000   0.00000   0.00000
   D12        3.14159   0.00000   0.00000   0.00000   0.00000  -3.14159
   D13       -3.14159   0.00000   0.00000   0.00000   0.00000  -3.14159
   D14        0.00000   0.00000   0.00000   0.00000   0.00000   0.00000
   D15        0.00000   0.00000   0.00000   0.00000   0.00000   0.00000
   D16       -3.14159   0.00000   0.00000   0.00000   0.00000  -3.14159
   D17        0.00000   0.00000   0.00000   0.00000   0.00000   0.00000
   D18        3.14159   0.00000   0.00000   0.00000   0.00000   3.14159
   D19        3.14159   0.00000   0.00000   0.00000   0.00000  -3.14159
   D20        0.00000   0.00000   0.00000   0.00000   0.00000   0.00000
         Item               Value     Threshold  Converged?
 Maximum Force            0.000398     0.000015     NO 
 RMS     Force            0.000186     0.000010     NO 
 Maximum Displacement     0.003618     0.000060     NO 
 RMS     Displacement     0.001274     0.000040     NO 
 Predicted change in Energy=-3.194836D-06
 GradGradGradGradGradGradGradGradGradGradGradGradGradGradGradGradGradGrad

                          Input orientation:                          
 ---------------------------------------------------------------------
 Center     Atomic      Atomic             Coordinates (Angstroms)
 Number     Number       Type             X           Y           Z
 ---------------------------------------------------------------------
      1          6           0        1.318334    1.042819   -0.604401
      2          6           0        2.496104    0.664027   -0.071154
      3          6           0        2.626507   -0.097646    1.190838
      4          6           0        3.816460   -0.478297    1.726158
      5          6           0        3.946865   -1.239970    2.988149
      6          6           0        5.124635   -1.618761    3.521394
      7          1           0        0.363581    0.802165   -0.121225
      8          1           0        1.263117    1.606977   -1.542644
      9          1           0        3.436226    0.921653   -0.581458
     10          1           0        1.691005   -0.359191    1.707298
     11          1           0        4.751962   -0.216752    1.209697
     12          1           0        3.006743   -1.497597    3.498454
     13          1           0        6.079387   -1.378106    3.038217
     14          1           0        5.179854   -2.182919    4.459637
 ---------------------------------------------------------------------
                    Distance matrix (angstroms):
                    1          2          3          4          5
     1  C    0.000000
     2  C    1.347210   0.000000
     3  C    2.496969   1.479789   0.000000
     4  C    3.739776   2.505709   1.359210   0.000000
     5  C    5.002670   3.884488   2.505709   1.479789   0.000000
     6  C    6.212416   5.002669   3.739777   2.496969   1.347210
     7  H    1.096780   2.137578   2.766225   4.120046   5.165118
     8  H    1.096186   2.138853   3.498070   4.642520   5.986292
     9  H    2.121479   1.100278   2.199011   2.725716   4.204220
    10  H    2.729188   2.204099   1.100137   2.128874   2.739572
    11  H    4.082557   2.739571   2.128874   1.100137   2.204099
    12  H    5.112519   4.204221   2.725718   2.199011   1.100278
    13  H    6.465073   5.165115   4.120045   2.766224   2.137578
    14  H    7.138712   5.986292   4.642521   3.498070   2.138853
                    6          7          8          9         10
     6  C    0.000000
     7  H    6.465075   0.000000
     8  H    7.138711   1.864757   0.000000
     9  H    5.112516   3.109218   2.473045   0.000000
    10  H    4.082558   2.540531   3.822437   3.150359   0.000000
    11  H    2.729186   4.697599   4.803479   2.497071   3.104409
    12  H    2.121479   5.037587   6.171813   4.762658   2.497073
    13  H    1.096780   6.885208   7.286389   5.037583   4.697599
    14  H    1.096186   7.286392   8.107498   6.171811   4.803481
                   11         12         13         14
    11  H    0.000000
    12  H    3.150359   0.000000
    13  H    2.540529   3.109218   0.000000
    14  H    3.822436   2.473045   1.864757   0.000000
 Stoichiometry    C6H8
 Framework group  C1[X(C6H8)]
 Deg. of freedom    36
 Full point group                 C1      NOp   1
 Largest Abelian subgroup         C1      NOp   1
 Largest concise Abelian subgroup C1      NOp   1
                         Standard orientation:                         
 ---------------------------------------------------------------------
 Center     Atomic      Atomic             Coordinates (Angstroms)
 Number     Number       Type             X           Y           Z
 ---------------------------------------------------------------------
      1          6           0        3.101463    0.171632    0.000000
      2          6           0        1.894673   -0.427229    0.000000
      3          6           0        0.607987    0.303670    0.000000
      4          6           0       -0.607987   -0.303668    0.000000
      5          6           0       -1.894674    0.427230    0.000000
      6          6           0       -3.101463   -0.171634    0.000000
      7          1           0        3.202251    1.263771    0.000000
      8          1           0        4.033416   -0.405505    0.000000
      9          1           0        1.828530   -1.525517    0.000000
     10          1           0        0.665500    1.402302    0.000000
     11          1           0       -0.665499   -1.402301    0.000000
     12          1           0       -1.828532    1.525518    0.000000
     13          1           0       -3.202248   -1.263773    0.000000
     14          1           0       -4.033417    0.405502    0.000000
 ---------------------------------------------------------------------
 Rotational constants (GHZ):     25.9134018      1.3059552      1.2432969
 Standard basis: STO-3G (5D, 7F)
 There are    38 symmetry adapted cartesian basis functions of A   symmetry.
 There are    38 symmetry adapted basis functions of A   symmetry.
    38 basis functions,   114 primitive gaussians,    38 cartesian basis functions
    22 alpha electrons       22 beta electrons
       nuclear repulsion energy       191.7439350761 Hartrees.
 NAtoms=   14 NActive=   14 NUniq=   14 SFac= 1.00D+00 NAtFMM=   60 NAOKFM=F Big=F
 Integral buffers will be    131072 words long.
 Raffenetti 2 integral format.
 Two-electron integral symmetry is turned on.
 One-electron integrals computed using PRISM.
 NBasis=    38 RedAO= T EigKep=  1.93D-01  NBF=    38
 NBsUse=    38 1.00D-06 EigRej= -1.00D+00 NBFU=    38
 Initial guess from the checkpoint file:  "/data/trash/Gau-2788.chk"
 B after Tr=     0.000000    0.000000    0.000000
         Rot=    1.000000    0.000000    0.000000   -0.000022 Ang=   0.00 deg.
 Keep R1 ints in memory in canonical form, NReq=1159285.
 Requested convergence on RMS density matrix=1.00D-08 within 128 cycles.
 Requested convergence on MAX density matrix=1.00D-06.
 Requested convergence on             energy=1.00D-06.
 No special actions if energy rises.
 SCF Done:  E(RB3LYP) =  -230.532005964     A.U. after    7 cycles
            NFock=  7  Conv=0.53D-08     -V/T= 2.0164
 Calling FoFJK, ICntrl=      2127 FMM=F ISym2X=0 I1Cent= 0 IOpClX= 0 NMat=1 NMatS=1 NMatT=0.
 ***** Axes restored to original set *****
 -------------------------------------------------------------------
 Center     Atomic                   Forces (Hartrees/Bohr)
 Number     Number              X              Y              Z
 -------------------------------------------------------------------
      1        6           0.000115387   -0.000043524    0.000062938
      2        6          -0.000066658    0.000011083   -0.000012903
      3        6          -0.000065123   -0.000012943    0.000027168
      4        6           0.000065170    0.000012946   -0.000027155
      5        6           0.000066764   -0.000011111    0.000012909
      6        6          -0.000115512    0.000043540   -0.000062978
      7        1          -0.000083058    0.000009907   -0.000009504
      8        1          -0.000026514    0.000021861   -0.000034278
      9        1           0.000082282    0.000003980   -0.000013615
     10        1          -0.000069610   -0.000006203    0.000016270
     11        1           0.000069583    0.000006203   -0.000016267
     12        1          -0.000082300   -0.000003972    0.000013616
     13        1           0.000083082   -0.000009911    0.000009519
     14        1           0.000026508   -0.000021856    0.000034281
 -------------------------------------------------------------------
 Cartesian Forces:  Max     0.000115512 RMS     0.000049107

 GradGradGradGradGradGradGradGradGradGradGradGradGradGradGradGradGradGrad
 Berny optimization.
 Using GEDIIS/GDIIS optimizer.
 FormGI is forming the generalized inverse of G from B-inverse, IUseBI=4.
 GSVD:  received Info=                   1 from GESDD.
 Internal  Forces:  Max     0.000085247 RMS     0.000038041
 Search for a local minimum.
 Step number   4 out of a maximum of   61
 All quantities printed in internal units (Hartrees-Bohrs-Radians)
 Mixed Optimization -- En-DIIS/RFO-DIIS
 Swapping is turned off.
 Update second derivatives using D2CorX and points    1    2    3    4
 DE= -3.10D-06 DEPred=-3.19D-06 R= 9.70D-01
 TightC=F SS=  1.41D+00  RLast= 5.30D-03 DXNew= 8.4853D-01 1.5899D-02
 Trust test= 9.70D-01 RLast= 5.30D-03 DXMaxT set to 5.05D-01
 ITU=  1  1  1  0
     Eigenvalues ---    0.01067   0.01067   0.02003   0.02003   0.02040
     Eigenvalues ---    0.02040   0.02889   0.02949   0.02949   0.02949
     Eigenvalues ---    0.02949   0.13319   0.15989   0.16000   0.16000
     Eigenvalues ---    0.16000   0.16000   0.16073   0.16605   0.21389
     Eigenvalues ---    0.22000   0.22000   0.22659   0.34884   0.35078
     Eigenvalues ---    0.35110   0.35192   0.35235   0.35273   0.35280
     Eigenvalues ---    0.35370   0.36588   0.40673   0.57718   0.58344
     Eigenvalues ---    0.66597
 En-DIIS/RFO-DIIS IScMMF=        0 using points:     4    3
 RFO step:  Lambda=-1.37115842D-07.
 DidBck=F Rises=F RFO-DIIS coefs:    0.97383    0.02617
 Iteration  1 RMS(Cart)=  0.00028029 RMS(Int)=  0.00000005
 Iteration  2 RMS(Cart)=  0.00000006 RMS(Int)=  0.00000000
 Variable       Old X    -DE/DX   Delta X   Delta X   Delta X     New X
                                 (Linear)    (Quad)   (Total)
    R1        2.54586  -0.00001   0.00002  -0.00008  -0.00006   2.54580
    R2        2.07261   0.00007   0.00002   0.00015   0.00016   2.07278
    R3        2.07149   0.00004   0.00001   0.00009   0.00010   2.07159
    R4        2.79640   0.00000  -0.00003   0.00006   0.00004   2.79643
    R5        2.07922   0.00008   0.00002   0.00015   0.00017   2.07940
    R6        2.56853   0.00009   0.00002   0.00008   0.00010   2.56864
    R7        2.07896   0.00007   0.00002   0.00013   0.00016   2.07911
    R8        2.79640   0.00000  -0.00003   0.00006   0.00004   2.79643
    R9        2.07896   0.00007   0.00002   0.00013   0.00016   2.07911
   R10        2.54586  -0.00001   0.00002  -0.00008  -0.00006   2.54580
   R11        2.07922   0.00008   0.00002   0.00015   0.00017   2.07940
   R12        2.07261   0.00007   0.00002   0.00015   0.00016   2.07278
   R13        2.07149   0.00004   0.00001   0.00009   0.00010   2.07159
    A1        2.12346   0.00005  -0.00002   0.00038   0.00036   2.12381
    A2        2.12648   0.00000  -0.00003   0.00010   0.00007   2.12655
    A3        2.03325  -0.00005   0.00005  -0.00048  -0.00042   2.03282
    A4        2.16436   0.00001  -0.00003   0.00013   0.00011   2.16447
    A5        2.09159   0.00002   0.00001   0.00013   0.00014   2.09173
    A6        2.02724  -0.00004   0.00002  -0.00027  -0.00025   2.02699
    A7        2.16178  -0.00007   0.00000  -0.00031  -0.00031   2.16147
    A8        2.03509   0.00001  -0.00002   0.00009   0.00007   2.03516
    A9        2.08632   0.00006   0.00003   0.00021   0.00024   2.08656
   A10        2.16178  -0.00007   0.00000  -0.00031  -0.00031   2.16147
   A11        2.08632   0.00006   0.00003   0.00021   0.00024   2.08656
   A12        2.03509   0.00001  -0.00002   0.00009   0.00007   2.03516
   A13        2.16436   0.00001  -0.00003   0.00013   0.00011   2.16447
   A14        2.02724  -0.00004   0.00002  -0.00027  -0.00025   2.02699
   A15        2.09159   0.00002   0.00001   0.00013   0.00014   2.09173
   A16        2.12346   0.00005  -0.00002   0.00038   0.00036   2.12381
   A17        2.12648   0.00000  -0.00003   0.00010   0.00007   2.12655
   A18        2.03325  -0.00005   0.00005  -0.00048  -0.00042   2.03282
    D1        0.00000   0.00000   0.00000   0.00000   0.00000   0.00000
    D2        3.14159   0.00000   0.00000   0.00000   0.00000  -3.14159
    D3       -3.14159   0.00000   0.00000   0.00000   0.00000   3.14159
    D4        0.00000   0.00000   0.00000   0.00000   0.00000   0.00000
    D5        3.14159   0.00000   0.00000   0.00000   0.00000  -3.14159
    D6        0.00000   0.00000   0.00000   0.00000   0.00000   0.00000
    D7        0.00000   0.00000   0.00000   0.00000   0.00000   0.00000
    D8       -3.14159   0.00000   0.00000   0.00000   0.00000   3.14159
    D9        3.14159   0.00000   0.00000   0.00000   0.00000  -3.14159
   D10        0.00000   0.00000   0.00000   0.00000   0.00000   0.00000
   D11        0.00000   0.00000   0.00000   0.00000   0.00000   0.00000
   D12       -3.14159   0.00000   0.00000   0.00000   0.00000   3.14159
   D13       -3.14159   0.00000   0.00000   0.00000   0.00000  -3.14159
   D14        0.00000   0.00000   0.00000   0.00000   0.00000   0.00000
   D15        0.00000   0.00000   0.00000   0.00000   0.00000   0.00000
   D16       -3.14159   0.00000   0.00000   0.00000   0.00000  -3.14159
   D17        0.00000   0.00000   0.00000   0.00000   0.00000   0.00000
   D18        3.14159   0.00000   0.00000   0.00000   0.00000   3.14159
   D19       -3.14159   0.00000   0.00000   0.00000   0.00000   3.14159
   D20        0.00000   0.00000   0.00000   0.00000   0.00000   0.00000
         Item               Value     Threshold  Converged?
 Maximum Force            0.000085     0.000015     NO 
 RMS     Force            0.000038     0.000010     NO 
 Maximum Displacement     0.000642     0.000060     NO 
 RMS     Displacement     0.000280     0.000040     NO 
 Predicted change in Energy=-1.367256D-07
 GradGradGradGradGradGradGradGradGradGradGradGradGradGradGradGradGradGrad

                          Input orientation:                          
 ---------------------------------------------------------------------
 Center     Atomic      Atomic             Coordinates (Angstroms)
 Number     Number       Type             X           Y           Z
 ---------------------------------------------------------------------
      1          6           0        1.318322    1.042803   -0.604373
      2          6           0        2.495989    0.663955   -0.071026
      3          6           0        2.626385   -0.097727    1.190983
      4          6           0        3.816583   -0.478216    1.726011
      5          6           0        3.946979   -1.239898    2.988020
      6          6           0        5.124647   -1.618745    3.521367
      7          1           0        0.363242    0.802369   -0.121537
      8          1           0        1.263149    1.606987   -1.542663
      9          1           0        3.436337    0.921474   -0.581168
     10          1           0        1.690849   -0.359323    1.707532
     11          1           0        4.752119   -0.216620    1.209462
     12          1           0        3.006632   -1.497417    3.498163
     13          1           0        6.079727   -1.378311    3.038530
     14          1           0        5.179820   -2.182929    4.459657
 ---------------------------------------------------------------------
                    Distance matrix (angstroms):
                    1          2          3          4          5
     1  C    0.000000
     2  C    1.347177   0.000000
     3  C    2.497027   1.479807   0.000000
     4  C    3.739719   2.505567   1.359264   0.000000
     5  C    5.002585   3.884301   2.505567   1.479807   0.000000
     6  C    6.212382   5.002584   3.739719   2.497027   1.347177
     7  H    1.096867   2.137831   2.766713   4.120546   5.165595
     8  H    1.096237   2.138906   3.498183   4.642448   5.986217
     9  H    2.121614   1.100370   2.198935   2.725215   4.203736
    10  H    2.729403   2.204227   1.100220   2.129137   2.739559
    11  H    4.082537   2.739559   2.129137   1.100220   2.204227
    12  H    5.112134   4.203736   2.725215   2.198935   1.100370
    13  H    6.465564   5.165594   4.120546   2.766713   2.137831
    14  H    7.138692   5.986216   4.642448   3.498183   2.138906
                    6          7          8          9         10
     6  C    0.000000
     7  H    6.465565   0.000000
     8  H    7.138692   1.864630   0.000000
     9  H    5.112133   3.109560   2.473286   0.000000
    10  H    4.082538   2.541173   3.822705   3.150448   0.000000
    11  H    2.729403   4.698100   4.803400   2.496578   3.104805
    12  H    2.121614   5.037733   6.171466   4.761999   2.496578
    13  H    1.096867   6.886189   7.286890   5.037732   4.698100
    14  H    1.096237   7.286890   8.107504   6.171465   4.803400
                   11         12         13         14
    11  H    0.000000
    12  H    3.150448   0.000000
    13  H    2.541173   3.109560   0.000000
    14  H    3.822704   2.473286   1.864630   0.000000
 Stoichiometry    C6H8
 Framework group  C1[X(C6H8)]
 Deg. of freedom    36
 Full point group                 C1      NOp   1
 Largest Abelian subgroup         C1      NOp   1
 Largest concise Abelian subgroup C1      NOp   1
                         Standard orientation:                         
 ---------------------------------------------------------------------
 Center     Atomic      Atomic             Coordinates (Angstroms)
 Number     Number       Type             X           Y           Z
 ---------------------------------------------------------------------
      1          6           0        3.101452    0.171521    0.000000
      2          6           0        1.894598   -0.427136    0.000000
      3          6           0        0.607933    0.303837    0.000000
      4          6           0       -0.607933   -0.303837    0.000000
      5          6           0       -1.894598    0.427136    0.000000
      6          6           0       -3.101452   -0.171522    0.000000
      7          1           0        3.202807    1.263696    0.000000
      8          1           0        4.033397   -0.405725    0.000000
      9          1           0        1.828118   -1.525497    0.000000
     10          1           0        0.665430    1.402554    0.000000
     11          1           0       -0.665430   -1.402553    0.000000
     12          1           0       -1.828119    1.525497    0.000000
     13          1           0       -3.202806   -1.263696    0.000000
     14          1           0       -4.033397    0.405724    0.000000
 ---------------------------------------------------------------------
 Rotational constants (GHZ):     25.9122084      1.3059769      1.2433138
 Standard basis: STO-3G (5D, 7F)
 There are    38 symmetry adapted cartesian basis functions of A   symmetry.
 There are    38 symmetry adapted basis functions of A   symmetry.
    38 basis functions,   114 primitive gaussians,    38 cartesian basis functions
    22 alpha electrons       22 beta electrons
       nuclear repulsion energy       191.7416937008 Hartrees.
 NAtoms=   14 NActive=   14 NUniq=   14 SFac= 1.00D+00 NAtFMM=   60 NAOKFM=F Big=F
 Integral buffers will be    131072 words long.
 Raffenetti 2 integral format.
 Two-electron integral symmetry is turned on.
 One-electron integrals computed using PRISM.
 NBasis=    38 RedAO= T EigKep=  1.93D-01  NBF=    38
 NBsUse=    38 1.00D-06 EigRej= -1.00D+00 NBFU=    38
 Initial guess from the checkpoint file:  "/data/trash/Gau-2788.chk"
 B after Tr=     0.000000    0.000000    0.000000
         Rot=    1.000000    0.000000    0.000000    0.000011 Ang=   0.00 deg.
 Keep R1 ints in memory in canonical form, NReq=1159285.
 Requested convergence on RMS density matrix=1.00D-08 within 128 cycles.
 Requested convergence on MAX density matrix=1.00D-06.
 Requested convergence on             energy=1.00D-06.
 No special actions if energy rises.
 SCF Done:  E(RB3LYP) =  -230.532006120     A.U. after    6 cycles
            NFock=  6  Conv=0.85D-08     -V/T= 2.0164
 Calling FoFJK, ICntrl=      2127 FMM=F ISym2X=0 I1Cent= 0 IOpClX= 0 NMat=1 NMatS=1 NMatT=0.
 ***** Axes restored to original set *****
 -------------------------------------------------------------------
 Center     Atomic                   Forces (Hartrees/Bohr)
 Number     Number              X              Y              Z
 -------------------------------------------------------------------
      1        6          -0.000001886   -0.000000942    0.000001752
      2        6           0.000006262    0.000001477   -0.000002986
      3        6          -0.000029849   -0.000005770    0.000012164
      4        6           0.000029860    0.000005765   -0.000012174
      5        6          -0.000006244   -0.000001469    0.000002993
      6        6           0.000001878    0.000000945   -0.000001744
      7        1          -0.000000220    0.000002163   -0.000003605
      8        1           0.000001509    0.000003957   -0.000006750
      9        1           0.000005172   -0.000000869    0.000001007
     10        1           0.000000541    0.000001967   -0.000003331
     11        1          -0.000000551   -0.000001966    0.000003335
     12        1          -0.000005178    0.000000868   -0.000001011
     13        1           0.000000218   -0.000002168    0.000003607
     14        1          -0.000001513   -0.000003959    0.000006744
 -------------------------------------------------------------------
 Cartesian Forces:  Max     0.000029860 RMS     0.000007732

 GradGradGradGradGradGradGradGradGradGradGradGradGradGradGradGradGradGrad
 Berny optimization.
 Using GEDIIS/GDIIS optimizer.
 FormGI is forming the generalized inverse of G from B-inverse, IUseBI=4.
 Internal  Forces:  Max     0.000022095 RMS     0.000005509
 Search for a local minimum.
 Step number   5 out of a maximum of   61
 All quantities printed in internal units (Hartrees-Bohrs-Radians)
 Mixed Optimization -- En-DIIS/RFO-DIIS
 Swapping is turned off.
 Update second derivatives using D2CorX and points    1    2    3    4    5
[...]
    A1        2.12384   0.00000   0.00000   0.00000   0.00000   2.12384
    A2        2.12655   0.00000   0.00000   0.00000  -0.00001   2.12654
    A3        2.03279   0.00000   0.00000   0.00001   0.00001   2.03280
    A4        2.16450   0.00000   0.00000   0.00001   0.00001   2.16451
    A5        2.09173   0.00000   0.00000   0.00000   0.00000   2.09173
    A6        2.02695   0.00000   0.00000   0.00000  -0.00001   2.02694
    A7        2.16140   0.00000   0.00000   0.00000  -0.00001   2.16139
    A8        2.03518   0.00000   0.00000   0.00001   0.00001   2.03519
    A9        2.08660   0.00000   0.00000   0.00000   0.00000   2.08660
   A10        2.16140   0.00000   0.00000   0.00000  -0.00001   2.16139
   A11        2.08660   0.00000   0.00000   0.00000   0.00000   2.08660
   A12        2.03518   0.00000   0.00000   0.00001   0.00001   2.03519
   A13        2.16450   0.00000   0.00000   0.00001   0.00001   2.16451
   A14        2.02695   0.00000   0.00000   0.00000  -0.00001   2.02694
   A15        2.09173   0.00000   0.00000   0.00000   0.00000   2.09173
   A16        2.12384   0.00000   0.00000   0.00000   0.00000   2.12384
   A17        2.12655   0.00000   0.00000   0.00000  -0.00001   2.12654
   A18        2.03279   0.00000   0.00000   0.00001   0.00001   2.03280
    D1        0.00000   0.00000   0.00000   0.00000   0.00000   0.00000
    D2        3.14159   0.00000   0.00000   0.00000   0.00000  -3.14159
    D3       -3.14159   0.00000   0.00000   0.00000   0.00000   3.14159
    D4        0.00000   0.00000   0.00000   0.00000   0.00000   0.00000
    D5        3.14159   0.00000   0.00000   0.00000   0.00000  -3.14159
    D6        0.00000   0.00000   0.00000   0.00000   0.00000   0.00000
    D7        0.00000   0.00000   0.00000   0.00000   0.00000   0.00000
    D8       -3.14159   0.00000   0.00000   0.00000   0.00000   3.14159
    D9        3.14159   0.00000   0.00000   0.00000   0.00000  -3.14159
   D10        0.00000   0.00000   0.00000   0.00000   0.00000   0.00000
   D11        0.00000   0.00000   0.00000   0.00000   0.00000   0.00000
   D12        3.14159   0.00000   0.00000   0.00000   0.00000   3.14159
   D13       -3.14159   0.00000   0.00000   0.00000   0.00000  -3.14159
   D14        0.00000   0.00000   0.00000   0.00000   0.00000   0.00000
   D15        0.00000   0.00000   0.00000   0.00000   0.00000   0.00000
   D16        3.14159   0.00000   0.00000   0.00000   0.00000  -3.14159
   D17        0.00000   0.00000   0.00000   0.00000   0.00000   0.00000
   D18       -3.14159   0.00000   0.00000   0.00000   0.00000   3.14159
   D19       -3.14159   0.00000   0.00000   0.00000   0.00000   3.14159
   D20        0.00000   0.00000   0.00000   0.00000   0.00000   0.00000
         Item               Value     Threshold  Converged?
 Maximum Force            0.000002     0.000015     YES
 RMS     Force            0.000001     0.000010     YES
 Maximum Displacement     0.000027     0.000060     YES
 RMS     Displacement     0.000010     0.000040     YES
 Predicted change in Energy=-6.329215D-11
 Optimization completed.
    -- Stationary point found.
                           ----------------------------
                           !   Optimized Parameters   !
                           ! (Angstroms and Degrees)  !
 --------------------------                            --------------------------
 ! Name  Definition              Value          Derivative Info.                !
 --------------------------------------------------------------------------------
 ! R1    R(1,2)                  1.3472         -DE/DX =    0.0                 !
 ! R2    R(1,7)                  1.0969         -DE/DX =    0.0                 !
 ! R3    R(1,8)                  1.0962         -DE/DX =    0.0                 !
 ! R4    R(2,3)                  1.4798         -DE/DX =    0.0                 !
 ! R5    R(2,9)                  1.1004         -DE/DX =    0.0                 !
 ! R6    R(3,4)                  1.3593         -DE/DX =    0.0                 !
 ! R7    R(3,10)                 1.1002         -DE/DX =    0.0                 !
 ! R8    R(4,5)                  1.4798         -DE/DX =    0.0                 !
 ! R9    R(4,11)                 1.1002         -DE/DX =    0.0                 !
 ! R10   R(5,6)                  1.3472         -DE/DX =    0.0                 !
 ! R11   R(5,12)                 1.1004         -DE/DX =    0.0                 !
 ! R12   R(6,13)                 1.0969         -DE/DX =    0.0                 !
 ! R13   R(6,14)                 1.0962         -DE/DX =    0.0                 !
 ! A1    A(2,1,7)              121.6872         -DE/DX =    0.0                 !
 ! A2    A(2,1,8)              121.8424         -DE/DX =    0.0                 !
 ! A3    A(7,1,8)              116.4705         -DE/DX =    0.0                 !
 ! A4    A(1,2,3)              124.0168         -DE/DX =    0.0                 !
 ! A5    A(1,2,9)              119.8476         -DE/DX =    0.0                 !
 ! A6    A(3,2,9)              116.1356         -DE/DX =    0.0                 !
 ! A7    A(2,3,4)              123.839          -DE/DX =    0.0                 !
 ! A8    A(2,3,10)             116.6074         -DE/DX =    0.0                 !
 ! A9    A(4,3,10)             119.5536         -DE/DX =    0.0                 !
 ! A10   A(3,4,5)              123.839          -DE/DX =    0.0                 !
 ! A11   A(3,4,11)             119.5536         -DE/DX =    0.0                 !
 ! A12   A(5,4,11)             116.6074         -DE/DX =    0.0                 !
 ! A13   A(4,5,6)              124.0168         -DE/DX =    0.0                 !
 ! A14   A(4,5,12)             116.1356         -DE/DX =    0.0                 !
 ! A15   A(6,5,12)             119.8476         -DE/DX =    0.0                 !
 ! A16   A(5,6,13)             121.6872         -DE/DX =    0.0                 !
 ! A17   A(5,6,14)             121.8424         -DE/DX =    0.0                 !
 ! A18   A(13,6,14)            116.4705         -DE/DX =    0.0                 !
 ! D1    D(7,1,2,3)              0.0            -DE/DX =    0.0                 !
 ! D2    D(7,1,2,9)           -180.0            -DE/DX =    0.0                 !
 ! D3    D(8,1,2,3)            180.0            -DE/DX =    0.0                 !
 ! D4    D(8,1,2,9)              0.0            -DE/DX =    0.0                 !
 ! D5    D(1,2,3,4)           -180.0            -DE/DX =    0.0                 !
 ! D6    D(1,2,3,10)             0.0            -DE/DX =    0.0                 !
 ! D7    D(9,2,3,4)              0.0            -DE/DX =    0.0                 !
 ! D8    D(9,2,3,10)           180.0            -DE/DX =    0.0                 !
 ! D9    D(2,3,4,5)           -180.0            -DE/DX =    0.0                 !
 ! D10   D(2,3,4,11)             0.0            -DE/DX =    0.0                 !
 ! D11   D(10,3,4,5)             0.0            -DE/DX =    0.0                 !
 ! D12   D(10,3,4,11)          180.0            -DE/DX =    0.0                 !
 ! D13   D(3,4,5,6)           -180.0            -DE/DX =    0.0                 !
 ! D14   D(3,4,5,12)             0.0            -DE/DX =    0.0                 !
 ! D15   D(11,4,5,6)             0.0            -DE/DX =    0.0                 !
 ! D16   D(11,4,5,12)         -180.0            -DE/DX =    0.0                 !
 ! D17   D(4,5,6,13)             0.0            -DE/DX =    0.0                 !
 ! D18   D(4,5,6,14)           180.0            -DE/DX =    0.0                 !
 ! D19   D(12,5,6,13)          180.0            -DE/DX =    0.0                 !
 ! D20   D(12,5,6,14)            0.0            -DE/DX =    0.0                 !
 --------------------------------------------------------------------------------
 GradGradGradGradGradGradGradGradGradGradGradGradGradGradGradGradGradGrad

                          Input orientation:                          
 ---------------------------------------------------------------------
 Center     Atomic      Atomic             Coordinates (Angstroms)
 Number     Number       Type             X           Y           Z
 ---------------------------------------------------------------------
      1          6           0        1.318306    1.042810   -0.604384
      2          6           0        2.495955    0.663942   -0.071000
      3          6           0        2.626353   -0.097746    1.191018
      4          6           0        3.816615   -0.478197    1.725977
      5          6           0        3.947013   -1.239885    2.987995
      6          6           0        5.124663   -1.618753    3.521378
      7          1           0        0.363193    0.802408   -0.121597
      8          1           0        1.263169    1.606998   -1.542685
      9          1           0        3.436327    0.921442   -0.581114
     10          1           0        1.690836   -0.359355    1.707586
     11          1           0        4.752132   -0.216588    1.209408
     12          1           0        3.006642   -1.497385    3.498109
     13          1           0        6.079776   -1.378350    3.038591
     14          1           0        5.179800   -2.182941    4.459679
 ---------------------------------------------------------------------
                    Distance matrix (angstroms):
                    1          2          3          4          5
     1  C    0.000000
     2  C    1.347181   0.000000
     3  C    2.497063   1.479818   0.000000
     4  C    3.739732   2.505544   1.359282   0.000000
     5  C    5.002598   3.884273   2.505544   1.479818   0.000000
     6  C    6.212422   5.002597   3.739732   2.497063   1.347181
     7  H    1.096867   2.137852   2.766790   4.120632   5.165684
     8  H    1.096247   2.138918   3.498221   4.642443   5.986219
     9  H    2.121623   1.100373   2.198921   2.725120   4.203650
    10  H    2.729478   2.204251   1.100215   2.129178   2.739546
    11  H    4.082535   2.739546   2.129178   1.100215   2.204251
    12  H    5.112095   4.203650   2.725120   2.198921   1.100373
    13  H    6.465670   5.165684   4.120632   2.766790   2.137852
    14  H    7.138721   5.986219   4.642443   3.498221   2.138918
                    6          7          8          9         10
     6  C    0.000000
     7  H    6.465670   0.000000
     8  H    7.138721   1.864622   0.000000
     9  H    5.112095   3.109579   2.473302   0.000000
    10  H    4.082535   2.541307   3.822787   3.150449   0.000000
    11  H    2.729478   4.698161   4.803368   2.496483   3.104851
    12  H    2.121623   5.037771   6.171425   4.761871   2.496483
    13  H    1.096867   6.886350   7.286981   5.037771   4.698161
    14  H    1.096247   7.286982   8.107528   6.171425   4.803369
                   11         12         13         14
    11  H    0.000000
    12  H    3.150449   0.000000
    13  H    2.541307   3.109579   0.000000
    14  H    3.822787   2.473302   1.864622   0.000000
 Stoichiometry    C6H8
 Framework group  C1[X(C6H8)]
 Deg. of freedom    36
 Full point group                 C1      NOp   1
 Largest Abelian subgroup         C1      NOp   1
 Largest concise Abelian subgroup C1      NOp   1
                         Standard orientation:                         
 ---------------------------------------------------------------------
 Center     Atomic      Atomic             Coordinates (Angstroms)
 Number     Number       Type             X           Y           Z
 ---------------------------------------------------------------------
      1          6           0        3.101473    0.171500    0.000000
      2          6           0        1.894590   -0.427108    0.000000
      3          6           0        0.607922    0.303881    0.000000
      4          6           0       -0.607922   -0.303881    0.000000
      5          6           0       -1.894590    0.427108    0.000000
      6          6           0       -3.101473   -0.171501    0.000000
      7          1           0        3.202905    1.263668    0.000000
      8          1           0        4.033402   -0.405790    0.000000
      9          1           0        1.828059   -1.525468    0.000000
     10          1           0        0.665398    1.402594    0.000000
     11          1           0       -0.665398   -1.402594    0.000000
     12          1           0       -1.828059    1.525468    0.000000
     13          1           0       -3.202905   -1.263668    0.000000
     14          1           0       -4.033403    0.405789    0.000000
 ---------------------------------------------------------------------
 Rotational constants (GHZ):     25.9123317      1.3059670      1.2433051

 **********************************************************************

            Population analysis using the SCF density.

 **********************************************************************

 Orbital symmetries:
       Occupied  (A) (A) (A) (A) (A) (A) (A) (A) (A) (A) (A) (A)
                 (A) (A) (A) (A) (A) (A) (A) (A) (A) (A)
       Virtual   (A) (A) (A) (A) (A) (A) (A) (A) (A) (A) (A) (A)
                 (A) (A) (A) (A)
 The electronic state is 1-A.
 Alpha  occ. eigenvalues --  -10.00782 -10.00779 -10.00558 -10.00511  -9.99133
 Alpha  occ. eigenvalues --   -9.99133  -0.76796  -0.73005  -0.67458  -0.57245
 Alpha  occ. eigenvalues --   -0.51693  -0.51337  -0.43911  -0.41443  -0.38697
 Alpha  occ. eigenvalues --   -0.36104  -0.33432  -0.32033  -0.29613  -0.28372
 Alpha  occ. eigenvalues --   -0.23106  -0.15187
 Alpha virt. eigenvalues --    0.03866   0.13776   0.21272   0.32767   0.38723
 Alpha virt. eigenvalues --    0.41078   0.42492   0.42844   0.43206   0.43429
 Alpha virt. eigenvalues --    0.55338   0.57379   0.65144   0.65480   0.72077
 Alpha virt. eigenvalues --    0.76821
          Condensed to atoms (all electrons):
               1          2          3          4          5          6
     1  C    4.854595   0.581792  -0.027516   0.000678  -0.000006   0.000000
     2  C    0.581792   4.790992   0.422743  -0.026632   0.000808  -0.000006
     3  C   -0.027516   0.422743   4.815007   0.566162  -0.026632   0.000678
     4  C    0.000678  -0.026632   0.566162   4.815007   0.422743  -0.027516
     5  C   -0.000006   0.000808  -0.026632   0.422743   4.790992   0.581792
     6  C    0.000000  -0.000006   0.000678  -0.027516   0.581792   4.854595
     7  H    0.386168  -0.024445  -0.004230   0.000026  -0.000001   0.000000
     8  H    0.388040  -0.023846   0.001412  -0.000019   0.000000   0.000000
     9  H   -0.026795   0.385288  -0.025213  -0.003189   0.000002   0.000000
    10  H   -0.003061  -0.024604   0.384191  -0.026755  -0.004232   0.000028
    11  H    0.000028  -0.004232  -0.026755   0.384191  -0.024604  -0.003061
    12  H    0.000000   0.000002  -0.003189  -0.025213   0.385288  -0.026795
    13  H    0.000000  -0.000001   0.000026  -0.004230  -0.024445   0.386168
    14  H    0.000000   0.000000  -0.000019   0.001412  -0.023846   0.388040
               7          8          9         10         11         12
     1  C    0.386168   0.388040  -0.026795  -0.003061   0.000028   0.000000
     2  C   -0.024445  -0.023846   0.385288  -0.024604  -0.004232   0.000002
     3  C   -0.004230   0.001412  -0.025213   0.384191  -0.026755  -0.003189
     4  C    0.000026  -0.000019  -0.003189  -0.026755   0.384191  -0.025213
     5  C   -0.000001   0.000000   0.000002  -0.004232  -0.024604   0.385288
     6  C    0.000000   0.000000   0.000000   0.000028  -0.003061  -0.026795
     7  H    0.586776  -0.023587   0.002010   0.000957   0.000001   0.000000
     8  H   -0.023587   0.584331  -0.004641   0.000000  -0.000001   0.000000
     9  H    0.002010  -0.004641   0.592483   0.001542   0.001010   0.000000
    10  H    0.000957   0.000000   0.001542   0.592625   0.001990   0.001010
    11  H    0.000001  -0.000001   0.001010   0.001990   0.592625   0.001542
    12  H    0.000000   0.000000   0.000000   0.001010   0.001542   0.592483
    13  H    0.000000   0.000000   0.000000   0.000001   0.000957   0.002010
    14  H    0.000000   0.000000   0.000000  -0.000001   0.000000  -0.004641
              13         14
     1  C    0.000000   0.000000
     2  C   -0.000001   0.000000
     3  C    0.000026  -0.000019
     4  C   -0.004230   0.001412
     5  C   -0.024445  -0.023846
     6  C    0.386168   0.388040
     7  H    0.000000   0.000000
     8  H    0.000000   0.000000
     9  H    0.000000   0.000000
    10  H    0.000001  -0.000001
    11  H    0.000957   0.000000
    12  H    0.002010  -0.004641
    13  H    0.586776  -0.023587
    14  H   -0.023587   0.584331
 Mulliken charges:
               1
     1  C   -0.153924
     2  C   -0.077858
     3  C   -0.076666
     4  C   -0.076666
     5  C   -0.077858
     6  C   -0.153924
     7  H    0.076324
     8  H    0.078310
     9  H    0.077504
    10  H    0.076309
    11  H    0.076309
    12  H    0.077504
    13  H    0.076324
    14  H    0.078310
 Sum of Mulliken charges =   0.00000
 Mulliken charges with hydrogens summed into heavy atoms:
               1
     1  C    0.000710
     2  C   -0.000354
     3  C   -0.000357
     4  C   -0.000357
     5  C   -0.000354
     6  C    0.000710
 Electronic spatial extent (au):  <R**2>=            929.4243
 Charge=              0.0000 electrons
 Dipole moment (field-independent basis, Debye):
    X=              0.0000    Y=              0.0000    Z=              0.0000  Tot=              0.0000
 Quadrupole moment (field-independent basis, Debye-Ang):
   XX=            -32.0308   YY=            -31.6186   ZZ=            -36.9414
   XY=              0.0599   XZ=              0.0000   YZ=              0.0000
 Traceless Quadrupole moment (field-independent basis, Debye-Ang):
   XX=              1.4995   YY=              1.9116   ZZ=             -3.4111
   XY=              0.0599   XZ=              0.0000   YZ=              0.0000
 Octapole moment (field-independent basis, Debye-Ang**2):
  XXX=              0.0000  YYY=              0.0000  ZZZ=              0.0000  XYY=              0.0000
  XXY=              0.0000  XXZ=              0.0000  XZZ=              0.0000  YZZ=              0.0000
  YYZ=              0.0000  XYZ=              0.0000
 Hexadecapole moment (field-independent basis, Debye-Ang**3):
 XXXX=          -1003.2640 YYYY=            -87.7996 ZZZZ=            -29.9394 XXXY=             -9.3530
 XXXZ=              0.0000 YYYX=              2.6531 YYYZ=              0.0000 ZZZX=              0.0000
 ZZZY=              0.0000 XXYY=           -182.7067 XXZZ=           -197.3494 YYZZ=            -22.5815
 XXYZ=              0.0000 YYXZ=              0.0000 ZZXY=              0.1633
 N-N= 1.917408270877D+02 E-N=-9.167546483650D+02  KE= 2.268154082504D+02
 1\1\GINC-MW\FOpt\RB3LYP\STO-3G\C6H8\BING\25-Feb-2019\0\\# opt(tight) b
 3lyp/sto-3g\\c06h08\\0,1\C,1.3183057798,1.0428100539,-0.6043839683\C,2
 .4959554671,0.6639420791,-0.0710002518\C,2.6263530563,-0.0977461928,1.
 1910175508\C,3.8166154045,-0.478196705,1.7259767886\C,3.9470130836,-1.
 2398849294,2.9879946106\C,5.1246628425,-1.618752867,3.5213782021\H,0.3
 631925233,0.8024075497,-0.1215970093\H,1.2631691328,1.6069982969,-1.54
 26846613\H,3.4363270923,0.921442163,-0.5811141094\H,1.6908360955,-0.35
 93545185,1.7075861519\H,4.7521323512,-0.2165883694,1.2094081701\H,3.00
 66415133,-1.4973851035,3.4981085227\H,6.0797760312,-1.3783503253,3.038
 5911308\H,5.1797996248,-2.1829411599,4.4596788556\\Version=ES64L-G09Re
 vD.01\State=1-A\HF=-230.5320061\RMSD=4.149e-09\RMSF=1.437e-06\Dipole=0
 .,-0.0000001,0.\Quadrupole=1.3564131,-1.5579864,0.2015733,-0.0799403,-
 0.1964235,-1.6279881\PG=C01 [X(C6H8)]\\@


 PATIENCE IS THE ABILITY TO IDLE YOUR MOTOR WHEN
 YOU FEEL LIKE STRIPPING YOUR GEARS.
 Job cpu time:       0 days  0 hours  2 minutes  9.6 seconds.
 File lengths (MBytes):  RWF=      5 Int=      0 D2E=      0 Chk=      1 Scr=      1
 Normal termination of Gaussian 09 at Mon Feb 25 22:30:45 2019.
