 Entering Gaussian System, Link 0=g09
 Input=c07h16.com
 Output=c07h16.out
 Initial command:
 /home/bing/src/g09_d.01/g09/l1.exe "/data/trash/Gau-1782.inp" -scrdir="/data/trash/"
 Entering Link 1 = /home/bing/src/g09_d.01/g09/l1.exe PID=      1787.
  
 Copyright (c) 1988,1990,1992,1993,1995,1998,2003,2009,2013,
            Gaussian, Inc.  All Rights Reserved.
  
 This is part of the Gaussian(R) 09 program.  It is based on
 the Gaussian(R) 03 system (copyright 2003, Gaussian, Inc.),
 the Gaussian(R) 98 system (copyright 1998, Gaussian, Inc.),
 the Gaussian(R) 94 system (copyright 1995, Gaussian, Inc.),
 the Gaussian 92(TM) system (copyright 1992, Gaussian, Inc.),
 the Gaussian 90(TM) system (copyright 1990, Gaussian, Inc.),
 the Gaussian 88(TM) system (copyright 1988, Gaussian, Inc.),
 the Gaussian 86(TM) system (copyright 1986, Carnegie Mellon
 University), and the Gaussian 82(TM) system (copyright 1983,
 Carnegie Mellon University). Gaussian is a federally registered
 trademark of Gaussian, Inc.
  
 This software contains proprietary and confidential information,
 including trade secrets, belonging to Gaussian, Inc.
  
 This software is provided under written license and may be
 used, copied, transmitted, or stored only in accord with that
 written license.
  
 The following legend is applicable only to US Government
 contracts under FAR:
  
                    RESTRICTED RIGHTS LEGEND
  
 Use, reproduction and disclosure by the US Government is
 subject to restrictions as set forth in subparagraphs (a)
 and (c) of the Commercial Computer Software - Restricted
 Rights clause in FAR 52.227-19.
  
 Gaussian, Inc.
 340 Quinnipiac St., Bldg. 40, Wallingford CT 06492
  
  
 ---------------------------------------------------------------
 Warning -- This program may not be used in any manner that
 competes with the business of Gaussian, Inc. or will provide
 assistance to any competitor of Gaussian, Inc.  The licensee
 of this program is prohibited from giving any competitor of
 Gaussian, Inc. access to this program.  By using this program,
 the user acknowledges that Gaussian, Inc. is engaged in the
 business of creating and licensing software in the field of
 computational chemistry and represents and warrants to the
 licensee that it is not a competitor of Gaussian, Inc. and that
 it will not use this program in any manner prohibited above.
 ---------------------------------------------------------------
  

 Cite this work as:
 Gaussian 09, Revision D.01,
 M. J. Frisch, G. W. Trucks, H. B. Schlegel, G. E. Scuseria, 
 M. A. Robb, J. R. Cheeseman, G. Scalmani, V. Barone, B. Mennucci, 
 G. A. Petersson, H. Nakatsuji, M. Caricato, X. Li, H. P. Hratchian, 
 A. F. Izmaylov, J. Bloino, G. Zheng, J. L. Sonnenberg, M. Hada, 
 M. Ehara, K. Toyota, R. Fukuda, J. Hasegawa, M. Ishida, T. Nakajima, 
 Y. Honda, O. Kitao, H. Nakai, T. Vreven, J. A. Montgomery, Jr., 
 J. E. Peralta, F. Ogliaro, M. Bearpark, J. J. Heyd, E. Brothers, 
 K. N. Kudin, V. N. Staroverov, T. Keith, R. Kobayashi, J. Normand, 
 K. Raghavachari, A. Rendell, J. C. Burant, S. S. Iyengar, J. Tomasi, 
 M. Cossi, N. Rega, J. M. Millam, M. Klene, J. E. Knox, J. B. Cross, 
 V. Bakken, C. Adamo, J. Jaramillo, R. Gomperts, R. E. Stratmann, 
 O. Yazyev, A. J. Austin, R. Cammi, C. Pomelli, J. W. Ochterski, 
 R. L. Martin, K. Morokuma, V. G. Zakrzewski, G. A. Voth, 
 P. Salvador, J. J. Dannenberg, S. Dapprich, A. D. Daniels, 
 O. Farkas, J. B. Foresman, J. V. Ortiz, J. Cioslowski, 
 and D. J. Fox, Gaussian, Inc., Wallingford CT, 2013.
 
 ******************************************
 Gaussian 09:  ES64L-G09RevD.01 24-Apr-2013
                25-Feb-2019 
 ******************************************
 %nproc=6
 Will use up to    6 processors via shared memory.
 -------------------------
 # opt(tight) b3lyp/sto-3g
 -------------------------
 1/7=10,14=-1,18=20,19=15,26=3,38=1/1,3;
 2/9=110,12=2,17=6,18=5,40=1/2;
 3/6=3,11=2,16=1,25=1,30=1,71=1,74=-5/1,2,3;
 4//1;
 5/5=2,38=5/2;
 6/7=2,8=2,9=2,10=2,28=1/1;
 7//1,2,3,16;
 1/7=10,14=-1,18=20,19=15,26=3/3(2);
 2/9=110/2;
 99//99;
 2/9=110/2;
 3/6=3,11=2,16=1,25=1,30=1,71=1,74=-5/1,2,3;
 4/5=5,16=3,69=1/1;
 5/5=2,38=5/2;
 7//1,2,3,16;
 1/7=10,14=-1,18=20,19=15,26=3/3(-5);
 2/9=110/2;
 6/7=2,8=2,9=2,10=2,19=2,28=1/1;
 99/9=1/99;
 ------
 c07h16
 ------
 Symbolic Z-matrix:
 Charge =  0 Multiplicity = 1
 C                     0.43746  -1.48231  -2.20624 
 C                     0.85831  -2.81569  -1.60923 
 C                     2.10837  -2.67174  -0.74145 
 C                     2.52751  -4.0157   -0.14334 
 C                     3.7784   -3.87327   0.72537 
 C                     4.19598  -5.21703   1.32231 
 C                     5.43915  -5.08084   2.18684 
 H                     0.20894  -0.75523  -1.42046 
 H                    -0.45803  -1.60891  -2.82269 
 H                     1.22931  -1.06808  -2.83846 
 H                     0.03312  -3.21763  -1.00986 
 H                     1.04783  -3.52874  -2.42 
 H                     1.9149   -1.95454   0.06555 
 H                     2.9296   -2.26565  -1.34457 
 H                     2.72079  -4.73259  -0.95064 
 H                     1.70601  -4.42145   0.4596 
 H                     3.58551  -3.15649   1.53288 
 H                     4.60021  -3.4676    0.12276 
 H                     4.39387  -5.9361    0.51889 
 H                     3.37916  -5.62499   1.92902 
 H                     6.2847   -4.70524   1.60178 
 H                     5.26433  -4.39239   3.01978 
 H                     5.71957  -6.05344   2.6032 
 

 GradGradGradGradGradGradGradGradGradGradGradGradGradGradGradGradGradGrad
 Berny optimization.
 Initialization pass.
                           ----------------------------
                           !    Initial Parameters    !
                           ! (Angstroms and Degrees)  !
 --------------------------                            --------------------------
 ! Name  Definition              Value          Derivative Info.                !
 --------------------------------------------------------------------------------
 ! R1    R(1,2)                  1.5203         estimate D2E/DX2                !
 ! R2    R(1,8)                  1.0947         estimate D2E/DX2                !
 ! R3    R(1,9)                  1.0945         estimate D2E/DX2                !
 ! R4    R(1,10)                 1.0947         estimate D2E/DX2                !
 ! R5    R(2,3)                  1.5285         estimate D2E/DX2                !
 ! R6    R(2,11)                 1.0962         estimate D2E/DX2                !
 ! R7    R(2,12)                 1.0962         estimate D2E/DX2                !
 ! R8    R(3,4)                  1.5296         estimate D2E/DX2                !
 ! R9    R(3,13)                 1.0968         estimate D2E/DX2                !
 ! R10   R(3,14)                 1.0969         estimate D2E/DX2                !
 ! R11   R(4,5)                  1.5296         estimate D2E/DX2                !
 ! R12   R(4,15)                 1.0968         estimate D2E/DX2                !
 ! R13   R(4,16)                 1.0968         estimate D2E/DX2                !
 ! R14   R(5,6)                  1.5285         estimate D2E/DX2                !
 ! R15   R(5,17)                 1.0968         estimate D2E/DX2                !
 ! R16   R(5,18)                 1.0968         estimate D2E/DX2                !
 ! R17   R(6,7)                  1.5203         estimate D2E/DX2                !
 ! R18   R(6,19)                 1.0962         estimate D2E/DX2                !
 ! R19   R(6,20)                 1.0962         estimate D2E/DX2                !
 ! R20   R(7,21)                 1.0947         estimate D2E/DX2                !
 ! R21   R(7,22)                 1.0947         estimate D2E/DX2                !
 ! R22   R(7,23)                 1.0945         estimate D2E/DX2                !
 ! A1    A(2,1,8)              111.0038         estimate D2E/DX2                !
 ! A2    A(2,1,9)              110.2552         estimate D2E/DX2                !
 ! A3    A(2,1,10)             111.0034         estimate D2E/DX2                !
 ! A4    A(8,1,9)              108.0786         estimate D2E/DX2                !
 ! A5    A(8,1,10)             108.3151         estimate D2E/DX2                !
 ! A6    A(9,1,10)             108.0785         estimate D2E/DX2                !
 ! A7    A(1,2,3)              111.5136         estimate D2E/DX2                !
 ! A8    A(1,2,11)             109.141          estimate D2E/DX2                !
 ! A9    A(1,2,12)             109.1413         estimate D2E/DX2                !
 ! A10   A(3,2,11)             109.8608         estimate D2E/DX2                !
 ! A11   A(3,2,12)             109.8621         estimate D2E/DX2                !
 ! A12   A(11,2,12)            107.2189         estimate D2E/DX2                !
 ! A13   A(2,3,4)              111.3059         estimate D2E/DX2                !
 ! A14   A(2,3,13)             109.5742         estimate D2E/DX2                !
 ! A15   A(2,3,14)             109.5731         estimate D2E/DX2                !
 ! A16   A(4,3,13)             109.5823         estimate D2E/DX2                !
 ! A17   A(4,3,14)             109.5816         estimate D2E/DX2                !
 ! A18   A(13,3,14)            107.13           estimate D2E/DX2                !
 ! A19   A(3,4,5)              111.3678         estimate D2E/DX2                !
 ! A20   A(3,4,15)             109.5581         estimate D2E/DX2                !
 ! A21   A(3,4,16)             109.5575         estimate D2E/DX2                !
 ! A22   A(5,4,15)             109.5586         estimate D2E/DX2                !
 ! A23   A(5,4,16)             109.5575         estimate D2E/DX2                !
 ! A24   A(15,4,16)            107.1457         estimate D2E/DX2                !
 ! A25   A(4,5,6)              111.306          estimate D2E/DX2                !
 ! A26   A(4,5,17)             109.5821         estimate D2E/DX2                !
 ! A27   A(4,5,18)             109.5812         estimate D2E/DX2                !
 ! A28   A(6,5,17)             109.5743         estimate D2E/DX2                !
 ! A29   A(6,5,18)             109.5734         estimate D2E/DX2                !
 ! A30   A(17,5,18)            107.1302         estimate D2E/DX2                !
 ! A31   A(5,6,7)              111.5128         estimate D2E/DX2                !
 ! A32   A(5,6,19)             109.862          estimate D2E/DX2                !
 ! A33   A(5,6,20)             109.8613         estimate D2E/DX2                !
 ! A34   A(7,6,19)             109.1418         estimate D2E/DX2                !
 ! A35   A(7,6,20)             109.1412         estimate D2E/DX2                !
 ! A36   A(19,6,20)            107.2187         estimate D2E/DX2                !
 ! A37   A(6,7,21)             111.0032         estimate D2E/DX2                !
 ! A38   A(6,7,22)             111.0039         estimate D2E/DX2                !
 ! A39   A(6,7,23)             110.2559         estimate D2E/DX2                !
 ! A40   A(21,7,22)            108.3148         estimate D2E/DX2                !
 ! A41   A(21,7,23)            108.078          estimate D2E/DX2                !
 ! A42   A(22,7,23)            108.0787         estimate D2E/DX2                !
 ! D1    D(8,1,2,3)            -60.2637         estimate D2E/DX2                !
 ! D2    D(8,1,2,11)            61.2944         estimate D2E/DX2                !
 ! D3    D(8,1,2,12)           178.1764         estimate D2E/DX2                !
 ! D4    D(9,1,2,3)           -179.9995         estimate D2E/DX2                !
 ! D5    D(9,1,2,11)           -58.4414         estimate D2E/DX2                !
 ! D6    D(9,1,2,12)            58.4405         estimate D2E/DX2                !
 ! D7    D(10,1,2,3)            60.265          estimate D2E/DX2                !
 ! D8    D(10,1,2,11)         -178.1769         estimate D2E/DX2                !
 ! D9    D(10,1,2,12)          -61.2949         estimate D2E/DX2                !
 ! D10   D(1,2,3,4)           -179.9999         estimate D2E/DX2                !
 ! D11   D(1,2,3,13)            58.635          estimate D2E/DX2                !
 ! D12   D(1,2,3,14)           -58.6364         estimate D2E/DX2                !
 ! D13   D(11,2,3,4)            58.8604         estimate D2E/DX2                !
 ! D14   D(11,2,3,13)          -62.5047         estimate D2E/DX2                !
 ! D15   D(11,2,3,14)         -179.7761         estimate D2E/DX2                !
 ! D16   D(12,2,3,4)           -58.859          estimate D2E/DX2                !
 ! D17   D(12,2,3,13)          179.7759         estimate D2E/DX2                !
 ! D18   D(12,2,3,14)           62.5045         estimate D2E/DX2                !
 ! D19   D(2,3,4,5)            179.9999         estimate D2E/DX2                !
 ! D20   D(2,3,4,15)            58.635          estimate D2E/DX2                !
 ! D21   D(2,3,4,16)           -58.6369         estimate D2E/DX2                !
 ! D22   D(13,3,4,5)           -58.6398         estimate D2E/DX2                !
 ! D23   D(13,3,4,15)          179.9953         estimate D2E/DX2                !
 ! D24   D(13,3,4,16)           62.7234         estimate D2E/DX2                !
 ! D25   D(14,3,4,5)            58.6414         estimate D2E/DX2                !
 ! D26   D(14,3,4,15)          -62.7236         estimate D2E/DX2                !
 ! D27   D(14,3,4,16)         -179.9955         estimate D2E/DX2                !
 ! D28   D(3,4,5,6)           -179.9999         estimate D2E/DX2                !
 ! D29   D(3,4,5,17)            58.6397         estimate D2E/DX2                !
 ! D30   D(3,4,5,18)           -58.6412         estimate D2E/DX2                !
 ! D31   D(15,4,5,6)           -58.6352         estimate D2E/DX2                !
 ! D32   D(15,4,5,17)         -179.9956         estimate D2E/DX2                !
 ! D33   D(15,4,5,18)           62.7235         estimate D2E/DX2                !
 ! D34   D(16,4,5,6)            58.637          estimate D2E/DX2                !
 ! D35   D(16,4,5,17)          -62.7234         estimate D2E/DX2                !
 ! D36   D(16,4,5,18)          179.9956         estimate D2E/DX2                !
 ! D37   D(4,5,6,7)            180.0            estimate D2E/DX2                !
 ! D38   D(4,5,6,19)            58.859          estimate D2E/DX2                !
 ! D39   D(4,5,6,20)           -58.8604         estimate D2E/DX2                !
 ! D40   D(17,5,6,7)           -58.6351         estimate D2E/DX2                !
 ! D41   D(17,5,6,19)         -179.7761         estimate D2E/DX2                !
 ! D42   D(17,5,6,20)           62.5045         estimate D2E/DX2                !
 ! D43   D(18,5,6,7)            58.6368         estimate D2E/DX2                !
 ! D44   D(18,5,6,19)          -62.5042         estimate D2E/DX2                !
 ! D45   D(18,5,6,20)          179.7764         estimate D2E/DX2                !
 ! D46   D(5,6,7,21)           -60.2649         estimate D2E/DX2                !
 ! D47   D(5,6,7,22)            60.2634         estimate D2E/DX2                !
 ! D48   D(5,6,7,23)           179.9999         estimate D2E/DX2                !
 ! D49   D(19,6,7,21)           61.2947         estimate D2E/DX2                !
 ! D50   D(19,6,7,22)         -178.1769         estimate D2E/DX2                !
 ! D51   D(19,6,7,23)          -58.4405         estimate D2E/DX2                !
 ! D52   D(20,6,7,21)          178.1768         estimate D2E/DX2                !
 ! D53   D(20,6,7,22)          -61.2949         estimate D2E/DX2                !
 ! D54   D(20,6,7,23)           58.4416         estimate D2E/DX2                !
 --------------------------------------------------------------------------------
 Trust Radius=3.00D-01 FncErr=1.00D-07 GrdErr=1.00D-06
 Number of steps in this run=    128 maximum allowed number of steps=    138.
 GradGradGradGradGradGradGradGradGradGradGradGradGradGradGradGradGradGrad

                          Input orientation:                          
 ---------------------------------------------------------------------
 Center     Atomic      Atomic             Coordinates (Angstroms)
 Number     Number       Type             X           Y           Z
 ---------------------------------------------------------------------
      1          6           0        0.437460   -1.482310   -2.206240
      2          6           0        0.858310   -2.815690   -1.609230
      3          6           0        2.108370   -2.671740   -0.741450
      4          6           0        2.527510   -4.015700   -0.143340
      5          6           0        3.778400   -3.873270    0.725370
      6          6           0        4.195980   -5.217030    1.322310
      7          6           0        5.439150   -5.080840    2.186840
      8          1           0        0.208940   -0.755230   -1.420460
      9          1           0       -0.458030   -1.608910   -2.822690
     10          1           0        1.229310   -1.068080   -2.838460
     11          1           0        0.033120   -3.217630   -1.009860
     12          1           0        1.047830   -3.528740   -2.420000
     13          1           0        1.914900   -1.954540    0.065550
     14          1           0        2.929600   -2.265650   -1.344570
     15          1           0        2.720790   -4.732590   -0.950640
     16          1           0        1.706010   -4.421450    0.459600
     17          1           0        3.585510   -3.156490    1.532880
     18          1           0        4.600210   -3.467600    0.122760
     19          1           0        4.393870   -5.936100    0.518890
     20          1           0        3.379160   -5.624990    1.929020
     21          1           0        6.284700   -4.705240    1.601780
     22          1           0        5.264330   -4.392390    3.019780
     23          1           0        5.719570   -6.053440    2.603200
 ---------------------------------------------------------------------
                    Distance matrix (angstroms):
                    1          2          3          4          5
     1  C    0.000000
     2  C    1.520341   0.000000
     3  C    2.520376   1.528533   0.000000
     4  C    3.878393   2.524893   1.529589   0.000000
     5  C    5.047069   3.885326   2.526704   1.529598   0.000000
     6  C    6.365946   5.049792   3.885321   2.524899   1.528529
     7  C    7.567395   6.365936   5.047053   3.878390   2.520359
     8  H    1.094677   2.168597   2.782427   4.199698   5.202673
     9  H    1.094505   2.159063   3.470962   4.678141   5.971884
    10  H    1.094676   2.168591   2.782431   4.199697   5.202676
    11  H    2.146195   1.096238   2.162568   2.758578   4.179475
    12  H    2.146187   1.096224   2.162574   2.758580   4.179482
    13  H    2.750793   2.159363   1.096839   2.160395   2.754908
    14  H    2.750792   2.159359   1.096851   2.160395   2.754915
    15  H    4.165867   2.752649   2.160074   1.096823   2.160088
    16  H    4.165869   2.752657   2.160069   1.096828   2.160078
    17  H    5.166635   4.174520   2.754905   2.160398   1.096838
    18  H    5.166634   4.174517   2.754908   2.160395   1.096849
    19  H    6.551012   5.173590   4.179475   2.758584   2.162569
    20  H    6.551013   5.173593   4.179474   2.758586   2.162565
    21  H    7.686255   6.582301   5.202651   4.199689   2.782411
    22  H    7.686256   6.582304   5.202650   4.199691   2.782407
    23  H    8.480957   7.201350   5.971879   4.678153   3.470955
                    6          7          8          9         10
     6  C    0.000000
     7  C    1.520339   0.000000
     8  H    6.582320   7.686261   0.000000
     9  H    7.201345   8.480945   1.771967   0.000000
    10  H    6.582319   7.686263   1.774755   1.771966   0.000000
    11  H    5.173589   6.551000   2.502582   2.472966   3.065161
    12  H    5.173592   6.551006   3.065155   2.472958   2.502577
    13  H    4.174519   5.166620   2.560639   3.753956   3.112735
    14  H    4.174519   5.166623   3.112735   3.753956   2.560638
    15  H    2.752666   4.165878   4.727527   4.833926   4.383721
    16  H    2.752665   4.165872   4.383721   4.833930   4.727529
    17  H    2.159361   2.750776   5.088172   6.141352   5.387184
    18  H    2.159358   2.750780   5.387182   6.141351   5.088171
    19  H    1.096223   2.146191   6.936579   7.309697   6.707001
    20  H    1.096231   2.146189   6.707002   7.309697   6.936581
    21  H    2.168590   1.094680   7.851839   8.638727   7.648636
    22  H    2.168596   1.094676   7.648636   8.638728   7.851841
    23  H    2.159071   1.094505   8.638745   9.346490   8.638745
                   11         12         13         14         15
    11  H    0.000000
    12  H    1.764914   0.000000
    13  H    2.508585   3.067226   0.000000
    14  H    3.067229   2.508586   1.764892   0.000000
    15  H    3.085803   2.531219   3.065887   2.506906   0.000000
    16  H    2.531216   3.085811   2.506902   3.065889   1.765039
    17  H    4.369066   4.712075   2.527584   3.082780   3.065894
    18  H    4.712072   4.369070   3.082777   2.527584   2.506912
    19  H    5.361277   5.062454   4.712073   4.369070   2.531235
    20  H    5.062448   5.361281   4.369071   4.712076   3.085818
    21  H    6.936563   6.706987   5.387161   5.088150   4.383726
    22  H    6.706983   6.936568   5.088150   5.387164   4.727533
    23  H    7.309701   7.309706   6.141349   6.141349   4.833953
                   16         17         18         19         20
    16  H    0.000000
    17  H    2.506905   0.000000
    18  H    3.065891   1.764892   0.000000
    19  H    3.085818   3.067222   2.508583   0.000000
    20  H    2.531232   2.508585   3.067225   1.764906   0.000000
    21  H    4.727527   3.112716   2.560617   2.502580   3.065157
    22  H    4.383721   2.560617   3.112719   3.065158   2.502584
    23  H    4.833950   3.753947   3.753947   2.472973   2.472975
                   21         22         23
    21  H    0.000000
    22  H    1.774755   0.000000
    23  H    1.771964   1.771968   0.000000
 Stoichiometry    C7H16
 Framework group  C1[X(C7H16)]
 Deg. of freedom    63
 Full point group                 C1      NOp   1
 Largest Abelian subgroup         C1      NOp   1
 Largest concise Abelian subgroup C1      NOp   1
                         Standard orientation:                         
 ---------------------------------------------------------------------
 Center     Atomic      Atomic             Coordinates (Angstroms)
 Number     Number       Type             X           Y           Z
 ---------------------------------------------------------------------
      1          6           0       -3.783701   -0.350027    0.000001
      2          6           0       -2.524895    0.502525    0.000003
      3          6           0       -1.263347   -0.360557   -0.000004
      4          6           0       -0.000002    0.501765    0.000001
      5          6           0        1.263357   -0.360554   -0.000004
      6          6           0        2.524897    0.502533    0.000003
      7          6           0        3.783694   -0.350029   -0.000001
      8          1           0       -3.824325   -0.989741   -0.887373
      9          1           0       -4.673241    0.287671   -0.000002
     10          1           0       -3.824326   -0.989730    0.887382
     11          1           0       -2.531221    1.152869   -0.882466
     12          1           0       -2.531228    1.152877    0.882448
     13          1           0       -1.263788   -1.011989   -0.882439
     14          1           0       -1.263789   -1.011980    0.882453
     15          1           0       -0.000009    1.153068    0.882512
     16          1           0       -0.000005    1.153053   -0.882528
     17          1           0        1.263796   -1.011983   -0.882439
     18          1           0        1.263794   -1.011974    0.882453
     19          1           0        2.531226    1.152883    0.882449
     20          1           0        2.531227    1.152877   -0.882457
     21          1           0        3.824310   -0.989736    0.887384
     22          1           0        3.824311   -0.989747   -0.887371
     23          1           0        4.673248    0.287650    0.000003
 ---------------------------------------------------------------------
 Rotational constants (GHZ):     11.9066843      0.7419271      0.7203542
 Standard basis: STO-3G (5D, 7F)
 There are    51 symmetry adapted cartesian basis functions of A   symmetry.
 There are    51 symmetry adapted basis functions of A   symmetry.
    51 basis functions,   153 primitive gaussians,    51 cartesian basis functions
    29 alpha electrons       29 beta electrons
       nuclear repulsion energy       309.0537409975 Hartrees.
 NAtoms=   23 NActive=   23 NUniq=   23 SFac= 1.00D+00 NAtFMM=   60 NAOKFM=F Big=F
 Integral buffers will be    131072 words long.
 Raffenetti 2 integral format.
 Two-electron integral symmetry is turned on.
 One-electron integrals computed using PRISM.
 NBasis=    51 RedAO= T EigKep=  1.98D-01  NBF=    51
 NBsUse=    51 1.00D-06 EigRej= -1.00D+00 NBFU=    51
 ExpMin= 1.69D-01 ExpMax= 7.16D+01 ExpMxC= 7.16D+01 IAcc=1 IRadAn=         1 AccDes= 0.00D+00
 Harris functional with IExCor=  402 and IRadAn=       1 diagonalized for initial guess.
 HarFok:  IExCor=  402 AccDes= 0.00D+00 IRadAn=         1 IDoV= 1 UseB2=F ITyADJ=14
 ICtDFT=  3500011 ScaDFX=  1.000000  1.000000  1.000000  1.000000
 FoFCou: FMM=F IPFlag=           0 FMFlag=      100000 FMFlg1=           0
         NFxFlg=           0 DoJE=T BraDBF=F KetDBF=T FulRan=T
         wScrn=  0.000000 ICntrl=     500 IOpCl=  0 I1Cent=   200000004 NGrid=           0
         NMat0=    1 NMatS0=      1 NMatT0=    0 NMatD0=    1 NMtDS0=    0 NMtDT0=    0
 Petite list used in FoFCou.
 Keep R1 ints in memory in canonical form, NReq=1777275.
 Requested convergence on RMS density matrix=1.00D-08 within 128 cycles.
 Requested convergence on MAX density matrix=1.00D-06.
 Requested convergence on             energy=1.00D-06.
 No special actions if energy rises.
 Integral accuracy reduced to 1.0D-05 until final iterations.
 Initial convergence to 1.0D-05 achieved.  Increase integral accuracy.
 SCF Done:  E(RB3LYP) =  -273.121366660     A.U. after   10 cycles
            NFock= 10  Conv=0.73D-08     -V/T= 2.0171

 **********************************************************************

            Population analysis using the SCF density.

 **********************************************************************

 Orbital symmetries:
       Occupied  (A) (A) (A) (A) (A) (A) (A) (A) (A) (A) (A) (A)
                 (A) (A) (A) (A) (A) (A) (A) (A) (A) (A) (A) (A)
                 (A) (A) (A) (A) (A)
       Virtual   (A) (A) (A) (A) (A) (A) (A) (A) (A) (A) (A) (A)
                 (A) (A) (A) (A) (A) (A) (A) (A) (A) (A)
 The electronic state is 1-A.
 Alpha  occ. eigenvalues --  -10.00596 -10.00595 -10.00324 -10.00278 -10.00180
 Alpha  occ. eigenvalues --   -9.99776  -9.99776  -0.77262  -0.74352  -0.69587
 Alpha  occ. eigenvalues --   -0.63502  -0.57292  -0.54434  -0.54011  -0.45052
 Alpha  occ. eigenvalues --   -0.42388  -0.39810  -0.38545  -0.38372  -0.36591
 Alpha  occ. eigenvalues --   -0.34009  -0.32892  -0.31837  -0.30565  -0.29861
 Alpha  occ. eigenvalues --   -0.28799  -0.28521  -0.28383  -0.25228
 Alpha virt. eigenvalues --    0.34708   0.36011   0.39037   0.40124   0.41116
 Alpha virt. eigenvalues --    0.41333   0.43086   0.44074   0.46698   0.47157
 Alpha virt. eigenvalues --    0.47869   0.49601   0.49665   0.50522   0.50954
 Alpha virt. eigenvalues --    0.52425   0.52490   0.53204   0.53447   0.53986
 Alpha virt. eigenvalues --    0.54459   0.57063
          Condensed to atoms (all electrons):
               1          2          3          4          5          6
     1  C    4.785109   0.366359  -0.023818   0.000837  -0.000006   0.000000
     2  C    0.366359   4.770869   0.365625  -0.022885   0.000812  -0.000006
     3  C   -0.023818   0.365625   4.783545   0.364802  -0.022723   0.000812
     4  C    0.000837  -0.022885   0.364802   4.784430   0.364800  -0.022885
     5  C   -0.000006   0.000812  -0.022723   0.364800   4.783545   0.365626
     6  C    0.000000  -0.000006   0.000812  -0.022885   0.365626   4.770868
     7  C    0.000000   0.000000  -0.000006   0.000837  -0.023819   0.366359
     8  H    0.381492  -0.020789  -0.002473   0.000011   0.000000   0.000000
     9  H    0.380985  -0.020314   0.001443  -0.000020   0.000000   0.000000
    10  H    0.381492  -0.020789  -0.002473   0.000011   0.000000   0.000000
    11  H   -0.022679   0.381094  -0.022114  -0.002437   0.000010   0.000000
    12  H   -0.022679   0.381098  -0.022114  -0.002437   0.000010   0.000000
    13  H   -0.002427  -0.022202   0.380444  -0.022143  -0.002454   0.000010
    14  H   -0.002427  -0.022203   0.380440  -0.022143  -0.002454   0.000010
    15  H    0.000010  -0.002465  -0.022174   0.380459  -0.022173  -0.002465
    16  H    0.000010  -0.002465  -0.022174   0.380457  -0.022174  -0.002465
    17  H    0.000000   0.000010  -0.002454  -0.022143   0.380444  -0.022202
    18  H    0.000000   0.000010  -0.002454  -0.022143   0.380441  -0.022203
    19  H    0.000000   0.000000   0.000010  -0.002437  -0.022114   0.381098
    20  H    0.000000   0.000000   0.000010  -0.002437  -0.022114   0.381095
    21  H    0.000000   0.000000   0.000000   0.000011  -0.002474  -0.020789
    22  H    0.000000   0.000000   0.000000   0.000011  -0.002474  -0.020789
    23  H    0.000000   0.000000   0.000000  -0.000020   0.001443  -0.020314
               7          8          9         10         11         12
     1  C    0.000000   0.381492   0.380985   0.381492  -0.022679  -0.022679
     2  C    0.000000  -0.020789  -0.020314  -0.020789   0.381094   0.381098
     3  C   -0.000006  -0.002473   0.001443  -0.002473  -0.022114  -0.022114
     4  C    0.000837   0.000011  -0.000020   0.000011  -0.002437  -0.002437
     5  C   -0.023819   0.000000   0.000000   0.000000   0.000010   0.000010
     6  C    0.366359   0.000000   0.000000   0.000000   0.000000   0.000000
     7  C    4.785109   0.000000   0.000000   0.000000   0.000000   0.000000
     8  H    0.000000   0.612749  -0.021120  -0.021305  -0.002560   0.002067
     9  H    0.000000  -0.021120   0.613215  -0.021120  -0.002485  -0.002485
    10  H    0.000000  -0.021305  -0.021120   0.612749   0.002067  -0.002560
    11  H    0.000000  -0.002560  -0.002485   0.002067   0.623524  -0.023104
    12  H    0.000000   0.002067  -0.002485  -0.002560  -0.023104   0.623517
    13  H    0.000000   0.000591   0.000013  -0.000028  -0.002498   0.002016
    14  H    0.000000  -0.000028   0.000013   0.000591   0.002016  -0.002498
    15  H    0.000010  -0.000001   0.000000   0.000002  -0.000014   0.000566
    16  H    0.000010   0.000002   0.000000  -0.000001   0.000566  -0.000014
    17  H   -0.002427   0.000000   0.000000   0.000000   0.000002  -0.000001
    18  H   -0.002427   0.000000   0.000000   0.000000  -0.000001   0.000002
    19  H   -0.022678   0.000000   0.000000   0.000000   0.000000   0.000000
    20  H   -0.022679   0.000000   0.000000   0.000000   0.000000   0.000000
    21  H    0.381490   0.000000   0.000000   0.000000   0.000000   0.000000
    22  H    0.381492   0.000000   0.000000   0.000000   0.000000   0.000000
    23  H    0.380985   0.000000   0.000000   0.000000   0.000000   0.000000
              13         14         15         16         17         18
     1  C   -0.002427  -0.002427   0.000010   0.000010   0.000000   0.000000
     2  C   -0.022202  -0.022203  -0.002465  -0.002465   0.000010   0.000010
     3  C    0.380444   0.380440  -0.022174  -0.022174  -0.002454  -0.002454
     4  C   -0.022143  -0.022143   0.380459   0.380457  -0.022143  -0.022143
     5  C   -0.002454  -0.002454  -0.022173  -0.022174   0.380444   0.380441
     6  C    0.000010   0.000010  -0.002465  -0.002465  -0.022202  -0.022203
     7  C    0.000000   0.000000   0.000010   0.000010  -0.002427  -0.002427
     8  H    0.000591  -0.000028  -0.000001   0.000002   0.000000   0.000000
     9  H    0.000013   0.000013   0.000000   0.000000   0.000000   0.000000
    10  H   -0.000028   0.000591   0.000002  -0.000001   0.000000   0.000000
    11  H   -0.002498   0.002016  -0.000014   0.000566   0.000002  -0.000001
    12  H    0.002016  -0.002498   0.000566  -0.000014  -0.000001   0.000002
    13  H    0.624968  -0.023318   0.002016  -0.002507   0.000568  -0.000014
    14  H   -0.023318   0.624975  -0.002507   0.002016  -0.000014   0.000568
    15  H    0.002016  -0.002507   0.625331  -0.023335   0.002016  -0.002507
    16  H   -0.002507   0.002016  -0.023335   0.625336  -0.002507   0.002016
    17  H    0.000568  -0.000014   0.002016  -0.002507   0.624967  -0.023318
    18  H   -0.000014   0.000568  -0.002507   0.002016  -0.023318   0.624974
    19  H   -0.000001   0.000002   0.000566  -0.000014   0.002016  -0.002498
    20  H    0.000002  -0.000001  -0.000014   0.000566  -0.002498   0.002016
    21  H    0.000000   0.000000   0.000002  -0.000001  -0.000028   0.000591
    22  H    0.000000   0.000000  -0.000001   0.000002   0.000591  -0.000028
    23  H    0.000000   0.000000   0.000000   0.000000   0.000013   0.000013
              19         20         21         22         23
     1  C    0.000000   0.000000   0.000000   0.000000   0.000000
     2  C    0.000000   0.000000   0.000000   0.000000   0.000000
     3  C    0.000010   0.000010   0.000000   0.000000   0.000000
     4  C   -0.002437  -0.002437   0.000011   0.000011  -0.000020
     5  C   -0.022114  -0.022114  -0.002474  -0.002474   0.001443
     6  C    0.381098   0.381095  -0.020789  -0.020789  -0.020314
     7  C   -0.022678  -0.022679   0.381490   0.381492   0.380985
     8  H    0.000000   0.000000   0.000000   0.000000   0.000000
     9  H    0.000000   0.000000   0.000000   0.000000   0.000000
    10  H    0.000000   0.000000   0.000000   0.000000   0.000000
    11  H    0.000000   0.000000   0.000000   0.000000   0.000000
    12  H    0.000000   0.000000   0.000000   0.000000   0.000000
    13  H   -0.000001   0.000002   0.000000   0.000000   0.000000
    14  H    0.000002  -0.000001   0.000000   0.000000   0.000000
    15  H    0.000566  -0.000014   0.000002  -0.000001   0.000000
    16  H   -0.000014   0.000566  -0.000001   0.000002   0.000000
    17  H    0.002016  -0.002498  -0.000028   0.000591   0.000013
    18  H   -0.002498   0.002016   0.000591  -0.000028   0.000013
    19  H    0.623516  -0.023104  -0.002560   0.002067  -0.002485
    20  H   -0.023104   0.623521   0.002067  -0.002560  -0.002485
    21  H   -0.002560   0.002067   0.612752  -0.021305  -0.021121
    22  H    0.002067  -0.002560  -0.021305   0.612748  -0.021120
    23  H   -0.002485  -0.002485  -0.021121  -0.021120   0.613216
 Mulliken charges:
               1
     1  C   -0.222259
     2  C   -0.131758
     3  C   -0.132150
     4  C   -0.132537
     5  C   -0.132150
     6  C   -0.131760
     7  C   -0.222257
     8  H    0.071365
     9  H    0.071875
    10  H    0.071365
    11  H    0.068612
    12  H    0.068616
    13  H    0.066964
    14  H    0.066961
    15  H    0.066678
    16  H    0.066676
    17  H    0.066964
    18  H    0.066961
    19  H    0.068617
    20  H    0.068614
    21  H    0.071364
    22  H    0.071365
    23  H    0.071874
 Sum of Mulliken charges =   0.00000
 Mulliken charges with hydrogens summed into heavy atoms:
               1
     1  C   -0.007654
     2  C    0.005471
     3  C    0.001774
     4  C    0.000818
     5  C    0.001775
     6  C    0.005471
     7  C   -0.007655
 Electronic spatial extent (au):  <R**2>=           1658.7207
 Charge=              0.0000 electrons
 Dipole moment (field-independent basis, Debye):
    X=              0.0000    Y=              0.0324    Z=              0.0000  Tot=              0.0324
 Quadrupole moment (field-independent basis, Debye-Ang):
   XX=            -46.1840   YY=            -44.9667   ZZ=            -44.1907
   XY=              0.0000   XZ=              0.0000   YZ=              0.0001
 Traceless Quadrupole moment (field-independent basis, Debye-Ang):
   XX=             -1.0702   YY=              0.1471   ZZ=              0.9231
   XY=              0.0000   XZ=              0.0000   YZ=              0.0001
 Octapole moment (field-independent basis, Debye-Ang**2):
  XXX=              0.0000  YYY=              0.0639  ZZZ=              0.0000  XYY=              0.0000
  XXY=              2.5648  XXZ=              0.0001  XZZ=              0.0000  YZZ=             -0.5541
  YYZ=              0.0000  XYZ=              0.0000
 Hexadecapole moment (field-independent basis, Debye-Ang**3):
 XXXX=          -1938.1771 YYYY=           -148.1297 ZZZZ=            -83.4111 XXXY=             -0.0003
 XXXZ=              0.0001 YYYX=              0.0000 YYYZ=              0.0002 ZZZX=              0.0000
 ZZZY=             -0.0001 XXYY=           -342.4245 XXZZ=           -329.7844 YYZZ=            -33.4063
 XXYZ=              0.0003 YYXZ=              0.0000 ZZXY=              0.0000
 N-N= 3.090537409975D+02 E-N=-1.248036468562D+03  KE= 2.685252034683D+02
 Calling FoFJK, ICntrl=      2127 FMM=F ISym2X=0 I1Cent= 0 IOpClX= 0 NMat=1 NMatS=1 NMatT=0.
 ***** Axes restored to original set *****
 -------------------------------------------------------------------
 Center     Atomic                   Forces (Hartrees/Bohr)
 Number     Number              X              Y              Z
 -------------------------------------------------------------------
      1        6          -0.008428127    0.014103177   -0.009176629
      2        6          -0.006462858   -0.007799040   -0.002913339
      3        6           0.003722919    0.005853040    0.001372362
      4        6          -0.003389061   -0.006053650   -0.001094033
      5        6           0.003088593    0.006304064    0.000816346
      6        6          -0.003478968   -0.009942864   -0.000298731
      7        6           0.014849706   -0.002639711    0.011260786
      8        1          -0.000611917    0.003480680    0.003156544
      9        1          -0.004303642    0.001107149   -0.003341000
     10        1           0.003398533    0.002252024   -0.002416777
     11        1          -0.003546541   -0.003277035    0.003723831
     12        1           0.001558953   -0.004848519   -0.003373831
     13        1          -0.000917429    0.003631239    0.003830775
     14        1           0.003938425    0.002138263   -0.002919763
     15        1           0.000810237   -0.003598774   -0.003868966
     16        1          -0.004007590   -0.002120914    0.002825860
     17        1          -0.000772953    0.003528009    0.003958361
     18        1           0.004083324    0.002035048   -0.002793483
     19        1          -0.000260946   -0.003538579   -0.004972853
     20        1          -0.005369963   -0.001969718    0.002129391
     21        1           0.003696487    0.002034568   -0.002150625
     22        1          -0.000312305    0.003264950    0.003421056
     23        1           0.002715124   -0.003943407    0.002824716
 -------------------------------------------------------------------
 Cartesian Forces:  Max     0.014849706 RMS     0.004743106

 GradGradGradGradGradGradGradGradGradGradGradGradGradGradGradGradGradGrad
 Berny optimization.
 FormGI is forming the generalized inverse of G from B-inverse, IUseBI=4.
 Internal  Forces:  Max     0.025746906 RMS     0.005952376
 Search for a local minimum.
 Step number   1 out of a maximum of  128
 All quantities printed in internal units (Hartrees-Bohrs-Radians)
 Mixed Optimization -- RFO/linear search
 Second derivative matrix not updated -- first step.
 ITU=  0
     Eigenvalues ---    0.00374   0.00375   0.00389   0.00389   0.00497
     Eigenvalues ---    0.00497   0.03675   0.03686   0.03686   0.03719
     Eigenvalues ---    0.03719   0.04883   0.04889   0.04889   0.04928
     Eigenvalues ---    0.04928   0.05607   0.05607   0.05703   0.05703
     Eigenvalues ---    0.08108   0.08108   0.08113   0.08171   0.08171
     Eigenvalues ---    0.12033   0.12033   0.12038   0.12070   0.12070
     Eigenvalues ---    0.16000   0.16000   0.16000   0.16000   0.16000
     Eigenvalues ---    0.16000   0.21897   0.21897   0.21899   0.21906
     Eigenvalues ---    0.21906   0.29461   0.29461   0.29559   0.29560
     Eigenvalues ---    0.30334   0.30334   0.34033   0.34033   0.34034
     Eigenvalues ---    0.34034   0.34035   0.34036   0.34102   0.34102
     Eigenvalues ---    0.34103   0.34103   0.34277   0.34278   0.34278
     Eigenvalues ---    0.34278   0.34297   0.34297
 RFO step:  Lambda=-1.38993445D-02 EMin= 3.74426447D-03
 Linear search not attempted -- first point.
 Iteration  1 RMS(Cart)=  0.08188246 RMS(Int)=  0.00026033
 Iteration  2 RMS(Cart)=  0.00036170 RMS(Int)=  0.00007026
 Iteration  3 RMS(Cart)=  0.00000030 RMS(Int)=  0.00007026
 Variable       Old X    -DE/DX   Delta X   Delta X   Delta X     New X
                                 (Linear)    (Quad)   (Total)
    R1        2.87303   0.02575   0.00000   0.08116   0.08116   2.95418
    R2        2.06864   0.00471   0.00000   0.01319   0.01319   2.08183
    R3        2.06831   0.00527   0.00000   0.01478   0.01478   2.08309
    R4        2.06864   0.00471   0.00000   0.01319   0.01319   2.08183
    R5        2.88851   0.02271   0.00000   0.07339   0.07339   2.96190
    R6        2.07159   0.00591   0.00000   0.01664   0.01664   2.08823
    R7        2.07156   0.00592   0.00000   0.01668   0.01668   2.08824
    R8        2.89050   0.02253   0.00000   0.07302   0.07302   2.96353
    R9        2.07273   0.00535   0.00000   0.01512   0.01512   2.08784
   R10        2.07275   0.00535   0.00000   0.01509   0.01509   2.08784
   R11        2.89052   0.02252   0.00000   0.07301   0.07301   2.96353
   R12        2.07270   0.00534   0.00000   0.01508   0.01508   2.08778
   R13        2.07270   0.00534   0.00000   0.01507   0.01507   2.08778
   R14        2.88850   0.02272   0.00000   0.07340   0.07340   2.96190
   R15        2.07272   0.00536   0.00000   0.01512   0.01512   2.08784
   R16        2.07275   0.00535   0.00000   0.01509   0.01509   2.08784
   R17        2.87302   0.02575   0.00000   0.08116   0.08116   2.95418
   R18        2.07156   0.00592   0.00000   0.01668   0.01668   2.08824
   R19        2.07158   0.00591   0.00000   0.01666   0.01666   2.08824
   R20        2.06865   0.00470   0.00000   0.01319   0.01319   2.08183
   R21        2.06864   0.00471   0.00000   0.01319   0.01319   2.08183
   R22        2.06832   0.00527   0.00000   0.01478   0.01478   2.08309
    A1        1.93738  -0.00012   0.00000  -0.00189  -0.00192   1.93547
    A2        1.92432   0.00262   0.00000   0.01739   0.01737   1.94168
    A3        1.93738  -0.00012   0.00000  -0.00188  -0.00191   1.93547
    A4        1.88633  -0.00097   0.00000  -0.00335  -0.00338   1.88295
    A5        1.89045  -0.00053   0.00000  -0.00740  -0.00742   1.88303
    A6        1.88633  -0.00097   0.00000  -0.00335  -0.00338   1.88295
    A7        1.94628   0.00584   0.00000   0.02818   0.02817   1.97445
    A8        1.90487  -0.00086   0.00000   0.00320   0.00329   1.90816
    A9        1.90488  -0.00086   0.00000   0.00319   0.00329   1.90817
   A10        1.91743  -0.00247   0.00000  -0.01420  -0.01441   1.90302
   A11        1.91746  -0.00247   0.00000  -0.01422  -0.01443   1.90302
   A12        1.87132   0.00063   0.00000  -0.00736  -0.00756   1.86376
   A13        1.94265   0.00722   0.00000   0.03381   0.03380   1.97645
   A14        1.91243  -0.00220   0.00000  -0.00831  -0.00836   1.90407
   A15        1.91241  -0.00219   0.00000  -0.00829  -0.00834   1.90407
   A16        1.91257  -0.00207   0.00000  -0.00700  -0.00702   1.90555
   A17        1.91256  -0.00207   0.00000  -0.00699  -0.00701   1.90555
   A18        1.86977   0.00105   0.00000  -0.00479  -0.00491   1.86486
   A19        1.94373   0.00693   0.00000   0.03253   0.03251   1.97624
   A20        1.91215  -0.00204   0.00000  -0.00726  -0.00729   1.90486
   A21        1.91214  -0.00204   0.00000  -0.00724  -0.00728   1.90486
   A22        1.91216  -0.00204   0.00000  -0.00727  -0.00730   1.90485
   A23        1.91214  -0.00204   0.00000  -0.00725  -0.00729   1.90485
   A24        1.87004   0.00098   0.00000  -0.00503  -0.00514   1.86491
   A25        1.94266   0.00722   0.00000   0.03381   0.03380   1.97646
   A26        1.91257  -0.00207   0.00000  -0.00700  -0.00702   1.90555
   A27        1.91255  -0.00207   0.00000  -0.00698  -0.00701   1.90555
   A28        1.91243  -0.00220   0.00000  -0.00831  -0.00836   1.90407
   A29        1.91242  -0.00219   0.00000  -0.00829  -0.00834   1.90407
   A30        1.86978   0.00105   0.00000  -0.00479  -0.00491   1.86487
   A31        1.94627   0.00584   0.00000   0.02819   0.02818   1.97445
   A32        1.91745  -0.00247   0.00000  -0.01422  -0.01443   1.90302
   A33        1.91744  -0.00247   0.00000  -0.01421  -0.01442   1.90302
   A34        1.90488  -0.00086   0.00000   0.00318   0.00328   1.90816
   A35        1.90487  -0.00086   0.00000   0.00319   0.00329   1.90816
   A36        1.87132   0.00063   0.00000  -0.00736  -0.00756   1.86376
   A37        1.93737  -0.00012   0.00000  -0.00188  -0.00191   1.93547
   A38        1.93738  -0.00013   0.00000  -0.00190  -0.00192   1.93546
   A39        1.92433   0.00262   0.00000   0.01738   0.01736   1.94168
   A40        1.89045  -0.00053   0.00000  -0.00740  -0.00742   1.88303
   A41        1.88632  -0.00097   0.00000  -0.00334  -0.00337   1.88295
   A42        1.88633  -0.00097   0.00000  -0.00335  -0.00338   1.88295
    D1       -1.05180   0.00042   0.00000   0.00594   0.00594  -1.04586
    D2        1.06979   0.00053   0.00000   0.00857   0.00863   1.07842
    D3        3.10976   0.00030   0.00000   0.00334   0.00328   3.11304
    D4       -3.14158   0.00000   0.00000  -0.00001  -0.00001   3.14159
    D5       -1.01999   0.00011   0.00000   0.00262   0.00268  -1.01731
    D6        1.01998  -0.00011   0.00000  -0.00261  -0.00267   1.01731
    D7        1.05182  -0.00042   0.00000  -0.00596  -0.00596   1.04586
    D8       -3.10977  -0.00030   0.00000  -0.00333  -0.00327  -3.11304
    D9       -1.06980  -0.00053   0.00000  -0.00856  -0.00863  -1.07843
   D10       -3.14159   0.00000   0.00000   0.00000   0.00000   3.14159
   D11        1.02337  -0.00064   0.00000  -0.00773  -0.00771   1.01567
   D12       -1.02340   0.00064   0.00000   0.00775   0.00773  -1.01567
   D13        1.02731  -0.00109   0.00000  -0.01300  -0.01288   1.01443
   D14       -1.09091  -0.00174   0.00000  -0.02073  -0.02059  -1.11150
   D15       -3.13768  -0.00045   0.00000  -0.00525  -0.00515   3.14035
   D16       -1.02728   0.00109   0.00000   0.01298   0.01286  -1.01442
   D17        3.13768   0.00045   0.00000   0.00525   0.00515  -3.14035
   D18        1.09091   0.00174   0.00000   0.02073   0.02059   1.11150
   D19        3.14159   0.00000   0.00000   0.00000   0.00000   3.14159
   D20        1.02337  -0.00059   0.00000  -0.00725  -0.00724   1.01613
   D21       -1.02341   0.00060   0.00000   0.00729   0.00727  -1.01613
   D22       -1.02346   0.00057   0.00000   0.00697   0.00696  -1.01650
   D23        3.14151  -0.00002   0.00000  -0.00029  -0.00028   3.14123
   D24        1.09473   0.00117   0.00000   0.01425   0.01423   1.10896
   D25        1.02349  -0.00057   0.00000  -0.00700  -0.00699   1.01649
   D26       -1.09473  -0.00117   0.00000  -0.01425  -0.01423  -1.10897
   D27       -3.14151   0.00002   0.00000   0.00029   0.00028  -3.14123
   D28       -3.14159   0.00000   0.00000   0.00000   0.00000  -3.14159
   D29        1.02346  -0.00057   0.00000  -0.00697  -0.00696   1.01649
   D30       -1.02348   0.00057   0.00000   0.00699   0.00699  -1.01649
   D31       -1.02338   0.00059   0.00000   0.00726   0.00725  -1.01613
   D32       -3.14152   0.00002   0.00000   0.00029   0.00029  -3.14123
   D33        1.09473   0.00117   0.00000   0.01426   0.01424   1.10897
   D34        1.02341  -0.00060   0.00000  -0.00729  -0.00728   1.01613
   D35       -1.09473  -0.00117   0.00000  -0.01426  -0.01424  -1.10897
   D36        3.14152  -0.00002   0.00000  -0.00029  -0.00029   3.14123
   D37        3.14159   0.00000   0.00000   0.00000   0.00000  -3.14159
   D38        1.02728  -0.00109   0.00000  -0.01297  -0.01286   1.01443
   D39       -1.02731   0.00109   0.00000   0.01300   0.01288  -1.01442
   D40       -1.02338   0.00064   0.00000   0.00773   0.00771  -1.01567
   D41       -3.13768  -0.00045   0.00000  -0.00525  -0.00515   3.14035
   D42        1.09091   0.00174   0.00000   0.02073   0.02059   1.11150
   D43        1.02340  -0.00064   0.00000  -0.00776  -0.00773   1.01567
   D44       -1.09090  -0.00174   0.00000  -0.02073  -0.02059  -1.11150
   D45        3.13769   0.00045   0.00000   0.00524   0.00515  -3.14035
   D46       -1.05182   0.00042   0.00000   0.00596   0.00596  -1.04586
   D47        1.05179  -0.00042   0.00000  -0.00594  -0.00594   1.04586
   D48        3.14159   0.00000   0.00000   0.00000   0.00000   3.14159
   D49        1.06979   0.00053   0.00000   0.00856   0.00863   1.07842
   D50       -3.10977  -0.00030   0.00000  -0.00334  -0.00327  -3.11305
   D51       -1.01998   0.00011   0.00000   0.00260   0.00267  -1.01731
   D52        3.10977   0.00030   0.00000   0.00334   0.00327   3.11304
   D53       -1.06980  -0.00053   0.00000  -0.00856  -0.00863  -1.07843
   D54        1.02000  -0.00011   0.00000  -0.00262  -0.00269   1.01731
         Item               Value     Threshold  Converged?
 Maximum Force            0.025747     0.000015     NO 
 RMS     Force            0.005952     0.000010     NO 
 Maximum Displacement     0.193450     0.000060     NO 
 RMS     Displacement     0.082164     0.000040     NO 
 Predicted change in Energy=-7.294983D-03
 GradGradGradGradGradGradGradGradGradGradGradGradGradGradGradGradGradGrad

                          Input orientation:                          
 ---------------------------------------------------------------------
 Center     Atomic      Atomic             Coordinates (Angstroms)
 Number     Number       Type             X           Y           Z
 ---------------------------------------------------------------------
      1          6           0        0.349258   -1.410819   -2.285481
      2          6           0        0.794759   -2.774360   -1.664072
      3          6           0        2.075706   -2.653717   -0.768938
      4          6           0        2.525028   -4.020134   -0.144143
      5          6           0        3.806694   -3.899100    0.751420
      6          6           0        4.256024   -5.264613    1.376019
      7          6           0        5.533767   -5.140879    2.268167
      8          1           0        0.120833   -0.675802   -1.497304
      9          1           0       -0.552560   -1.531059   -2.907888
     10          1           0        1.144952   -0.989799   -2.920511
     11          1           0       -0.031409   -3.187102   -1.057262
     12          1           0        0.988606   -3.499845   -2.474766
     13          1           0        1.882528   -1.929499    0.042763
     14          1           0        2.902769   -2.242311   -1.375053
     15          1           0        2.717652   -4.743910   -0.956323
     16          1           0        1.697427   -4.431103    0.461475
     17          1           0        3.614644   -3.175694    1.564112
     18          1           0        4.634884   -3.488505    0.146293
     19          1           0        4.446590   -5.987734    0.562440
     20          1           0        3.426573   -5.674994    1.979946
     21          1           0        6.386228   -4.760701    1.682997
     22          1           0        5.362108   -4.446701    3.106201
     23          1           0        5.821939   -6.117268    2.690949
 ---------------------------------------------------------------------
                    Distance matrix (angstroms):
                    1          2          3          4          5
     1  C    0.000000
     2  C    1.563287   0.000000
     3  C    2.612532   1.567369   0.000000
     4  C    4.015947   2.618390   1.568232   0.000000
     5  C    5.231460   4.021367   2.618928   1.568232   0.000000
     6  C    6.597055   5.236780   4.021368   2.618391   1.567369
     7  C    7.843991   6.597054   5.231459   4.015946   2.612531
     8  H    1.101658   2.210415   2.874751   4.335406   5.388133
     9  H    1.102326   2.215433   3.569769   4.827558   6.164515
    10  H    1.101658   2.210415   2.874752   4.335407   5.388134
    11  H    2.192854   1.105046   2.192616   2.839559   4.302245
    12  H    2.192858   1.105048   2.192617   2.839559   4.302244
    13  H    2.835608   2.193244   1.104838   2.195106   2.843226
    14  H    2.835609   2.193243   1.104837   2.195104   2.843223
    15  H    4.299471   2.842104   2.194565   1.104804   2.194562
    16  H    4.299470   2.842104   2.194564   1.104804   2.194562
    17  H    5.347607   4.305112   2.843222   2.195103   1.104838
    18  H    5.347607   4.305111   2.843221   2.195102   1.104837
    19  H    6.771037   5.349672   4.302246   2.839562   2.192617
    20  H    6.771036   5.349672   4.302246   2.839560   2.192617
    21  H    7.963388   6.812705   5.388132   4.335407   2.874750
    22  H    7.963384   6.812702   5.388129   4.335404   2.874748
    23  H    8.767312   7.444043   6.164516   4.827561   3.569770
                    6          7          8          9         10
     6  C    0.000000
     7  C    1.563287   0.000000
     8  H    6.812706   7.963387   0.000000
     9  H    7.444042   8.767310   1.781760   0.000000
    10  H    6.812707   7.963388   1.781272   1.781760   0.000000
    11  H    5.349672   6.771035   2.554103   2.537497   3.111859
    12  H    5.349670   6.771034   3.111861   2.537499   2.554107
    13  H    4.305117   5.347609   2.654644   3.846395   3.195004
    14  H    4.305114   5.347607   3.195006   3.846396   2.654647
    15  H    2.842101   4.299468   4.856504   4.982499   4.519377
    16  H    2.842103   4.299468   4.519375   4.982499   4.856504
    17  H    2.193246   2.835609   5.275267   6.330023   5.566809
    18  H    2.193244   2.835610   5.566809   6.330023   5.275267
    19  H    1.105048   2.192857   7.153414   7.542985   6.929006
    20  H    1.105047   2.192856   6.929004   7.542984   7.153414
    21  H    2.210415   1.101658   8.127477   8.924886   7.929878
    22  H    2.210414   1.101658   7.929874   8.924883   8.127475
    23  H    2.215435   1.102326   8.924888   9.644404   8.924889
                   11         12         13         14         15
    11  H    0.000000
    12  H    1.774136   0.000000
    13  H    2.540625   3.098877   0.000000
    14  H    3.098874   2.540626   1.774527   0.000000
    15  H    3.160882   2.615907   3.101050   2.543148   0.000000
    16  H    2.615908   3.160883   2.543148   3.101048   1.774502
    17  H    4.490594   4.828425   2.620635   3.164911   3.101046
    18  H    4.828424   4.490592   3.164913   2.620633   2.543144
    19  H    5.524441   5.231813   4.828430   4.490597   2.615906
    20  H    5.231814   5.524438   4.490599   4.828427   3.160880
    21  H    7.153412   6.929003   5.566811   5.275268   4.519374
    22  H    6.929000   7.153409   5.275266   5.566806   4.856499
    23  H    7.542987   7.542985   6.330028   6.330025   4.982500
                   16         17         18         19         20
    16  H    0.000000
    17  H    2.543144   0.000000
    18  H    3.101045   1.774528   0.000000
    19  H    3.160884   3.098878   2.540625   0.000000
    20  H    2.615906   2.540628   3.098876   1.774137   0.000000
    21  H    4.856502   3.195006   2.654647   2.554105   3.111860
    22  H    4.519370   2.654643   3.195004   3.111860   2.554105
    23  H    4.982500   3.846397   3.846397   2.537502   2.537501
                   21         22         23
    21  H    0.000000
    22  H    1.781272   0.000000
    23  H    1.781759   1.781761   0.000000
 Stoichiometry    C7H16
 Framework group  C1[X(C7H16)]
 Deg. of freedom    63
 Full point group                 C1      NOp   1
 Largest Abelian subgroup         C1      NOp   1
 Largest concise Abelian subgroup C1      NOp   1
                         Standard orientation:                         
 ---------------------------------------------------------------------
 Center     Atomic      Atomic             Coordinates (Angstroms)
 Number     Number       Type             X           Y           Z
 ---------------------------------------------------------------------
      1          6           0       -3.921996   -0.357378    0.000000
      2          6           0       -2.618390    0.505453    0.000000
      3          6           0       -1.309464   -0.356730    0.000000
      4          6           0        0.000000    0.506205   -0.000001
      5          6           0        1.309464   -0.356729    0.000001
      6          6           0        2.618390    0.505454    0.000000
      7          6           0        3.921995   -0.357379    0.000000
      8          1           0       -3.964939   -1.004350   -0.890636
      9          1           0       -4.822201    0.278825    0.000000
     10          1           0       -3.964940   -1.004350    0.890637
     11          1           0       -2.615907    1.164414   -0.887069
     12          1           0       -2.615905    1.164418    0.887068
     13          1           0       -1.310319   -1.015085   -0.887263
     14          1           0       -1.310317   -1.015081    0.887264
     15          1           0        0.000001    1.164521    0.887249
     16          1           0        0.000001    1.164517   -0.887254
     17          1           0        1.310316   -1.015083   -0.887263
     18          1           0        1.310316   -1.015079    0.887265
     19          1           0        2.615908    1.164418    0.887069
     20          1           0        2.615907    1.164417   -0.887068
     21          1           0        3.964939   -1.004351    0.890636
     22          1           0        3.964935   -1.004353   -0.890636
     23          1           0        4.822203    0.278821   -0.000001
 ---------------------------------------------------------------------
 Rotational constants (GHZ):     11.7448828      0.6915903      0.6724774
 Standard basis: STO-3G (5D, 7F)
 There are    51 symmetry adapted cartesian basis functions of A   symmetry.
 There are    51 symmetry adapted basis functions of A   symmetry.
    51 basis functions,   153 primitive gaussians,    51 cartesian basis functions
    29 alpha electrons       29 beta electrons
       nuclear repulsion energy       301.3501657239 Hartrees.
 NAtoms=   23 NActive=   23 NUniq=   23 SFac= 1.00D+00 NAtFMM=   60 NAOKFM=F Big=F
 Integral buffers will be    131072 words long.
 Raffenetti 2 integral format.
 Two-electron integral symmetry is turned on.
 One-electron integrals computed using PRISM.
 NBasis=    51 RedAO= T EigKep=  2.12D-01  NBF=    51
 NBsUse=    51 1.00D-06 EigRej= -1.00D+00 NBFU=    51
 Initial guess from the checkpoint file:  "/data/trash/Gau-1787.chk"
 B after Tr=     0.000000    0.000000    0.000000
         Rot=    1.000000   -0.000001    0.000000    0.000000 Ang=   0.00 deg.
 ExpMin= 1.69D-01 ExpMax= 7.16D+01 ExpMxC= 7.16D+01 IAcc=1 IRadAn=         1 AccDes= 0.00D+00
 Harris functional with IExCor=  402 and IRadAn=       1 diagonalized for initial guess.
 HarFok:  IExCor=  402 AccDes= 0.00D+00 IRadAn=         1 IDoV= 1 UseB2=F ITyADJ=14
 ICtDFT=  3500011 ScaDFX=  1.000000  1.000000  1.000000  1.000000
 FoFCou: FMM=F IPFlag=           0 FMFlag=      100000 FMFlg1=           0
         NFxFlg=           0 DoJE=T BraDBF=F KetDBF=T FulRan=T
         wScrn=  0.000000 ICntrl=     500 IOpCl=  0 I1Cent=   200000004 NGrid=           0
         NMat0=    1 NMatS0=      1 NMatT0=    0 NMatD0=    1 NMtDS0=    0 NMtDT0=    0
 Petite list used in FoFCou.
 Keep R1 ints in memory in canonical form, NReq=1777275.
 Requested convergence on RMS density matrix=1.00D-08 within 128 cycles.
 Requested convergence on MAX density matrix=1.00D-06.
 Requested convergence on             energy=1.00D-06.
 No special actions if energy rises.
 Integral accuracy reduced to 1.0D-05 until final iterations.
 Initial convergence to 1.0D-05 achieved.  Increase integral accuracy.
 SCF Done:  E(RB3LYP) =  -273.126201099     A.U. after    9 cycles
            NFock=  9  Conv=0.56D-08     -V/T= 2.0185
 Calling FoFJK, ICntrl=      2127 FMM=F ISym2X=0 I1Cent= 0 IOpClX= 0 NMat=1 NMatS=1 NMatT=0.
 ***** Axes restored to original set *****
 -------------------------------------------------------------------
 Center     Atomic                   Forces (Hartrees/Bohr)
 Number     Number              X              Y              Z
 -------------------------------------------------------------------
      1        6           0.001929939   -0.000415104    0.001479683
      2        6           0.000050744   -0.001154429    0.000290191
      3        6           0.001377919    0.001425018    0.000677565
      4        6          -0.000797084   -0.001424596   -0.000258729
      5        6           0.000549395    0.002021311   -0.000050054
      6        6          -0.000942437   -0.000440429   -0.000581268
      7        6          -0.001152846    0.001802976   -0.001227451
      8        1           0.000397407   -0.000885163    0.000334385
      9        1           0.000834836   -0.001856987    0.001010506
     10        1           0.000262244   -0.000843925    0.000522161
     11        1           0.000188315    0.000818731   -0.000095997
     12        1           0.000141319    0.000834118   -0.000030222
     13        1          -0.000207794   -0.000476011   -0.000022460
     14        1          -0.000187082   -0.000481762   -0.000051106
     15        1           0.000274046    0.000408430    0.000022044
     16        1           0.000196092    0.000432307    0.000130545
     17        1          -0.000307694   -0.000403942   -0.000110473
     18        1          -0.000287087   -0.000409673   -0.000138777
     19        1           0.000565253    0.000529015    0.000342106
     20        1           0.000612817    0.000514158    0.000275850
     21        1          -0.000897833   -0.000008897   -0.000497328
     22        1          -0.000762793   -0.000050627   -0.000684670
     23        1          -0.001837678    0.000065482   -0.001336500
 -------------------------------------------------------------------
 Cartesian Forces:  Max     0.002021311 RMS     0.000812035

 GradGradGradGradGradGradGradGradGradGradGradGradGradGradGradGradGradGrad
 Berny optimization.
 Using GEDIIS/GDIIS optimizer.
 FormGI is forming the generalized inverse of G from B-inverse, IUseBI=4.
 Internal  Forces:  Max     0.005796179 RMS     0.001643341
 Search for a local minimum.
 Step number   2 out of a maximum of  128
 All quantities printed in internal units (Hartrees-Bohrs-Radians)
 Mixed Optimization -- RFO/linear search
 Update second derivatives using D2CorX and points    1    2
 DE= -4.83D-03 DEPred=-7.29D-03 R= 6.63D-01
 TightC=F SS=  1.41D+00  RLast= 2.24D-01 DXNew= 5.0454D-01 6.7153D-01
 Trust test= 6.63D-01 RLast= 2.24D-01 DXMaxT set to 5.05D-01
 ITU=  1  0
 Use linear search instead of GDIIS.
     Eigenvalues ---    0.00374   0.00375   0.00389   0.00389   0.00497
     Eigenvalues ---    0.00497   0.03499   0.03504   0.03504   0.03560
     Eigenvalues ---    0.03560   0.04840   0.04843   0.04863   0.04888
     Eigenvalues ---    0.04965   0.05589   0.05589   0.05629   0.05640
     Eigenvalues ---    0.08423   0.08428   0.08428   0.08442   0.08461
     Eigenvalues ---    0.12268   0.12271   0.12271   0.12274   0.12274
     Eigenvalues ---    0.15987   0.16000   0.16000   0.16000   0.16000
     Eigenvalues ---    0.16090   0.21928   0.21930   0.21933   0.21933
     Eigenvalues ---    0.22723   0.29461   0.29498   0.29559   0.30001
     Eigenvalues ---    0.30334   0.33677   0.34033   0.34033   0.34034
     Eigenvalues ---    0.34035   0.34036   0.34063   0.34102   0.34103
     Eigenvalues ---    0.34103   0.34203   0.34272   0.34277   0.34278
     Eigenvalues ---    0.34278   0.34297   0.37778
 RFO step:  Lambda=-2.49571804D-04 EMin= 3.74426447D-03
 Quartic linear search produced a step of -0.22558.
 Iteration  1 RMS(Cart)=  0.02376150 RMS(Int)=  0.00003150
 Iteration  2 RMS(Cart)=  0.00006219 RMS(Int)=  0.00001127
 Iteration  3 RMS(Cart)=  0.00000000 RMS(Int)=  0.00001127
 Variable       Old X    -DE/DX   Delta X   Delta X   Delta X     New X
                                 (Linear)    (Quad)   (Total)
    R1        2.95418  -0.00580  -0.01831   0.00442  -0.01388   2.94030
    R2        2.08183  -0.00043  -0.00298   0.00216  -0.00082   2.08101
    R3        2.08309  -0.00105  -0.00333   0.00114  -0.00219   2.08090
    R4        2.08183  -0.00043  -0.00298   0.00216  -0.00082   2.08101
    R5        2.96190  -0.00484  -0.01656   0.00467  -0.01188   2.95001
    R6        2.08823  -0.00050  -0.00375   0.00282  -0.00093   2.08730
    R7        2.08824  -0.00050  -0.00376   0.00283  -0.00093   2.08730
    R8        2.96353  -0.00566  -0.01647   0.00241  -0.01406   2.94947
    R9        2.08784  -0.00029  -0.00341   0.00293  -0.00048   2.08736
   R10        2.08784  -0.00029  -0.00340   0.00292  -0.00048   2.08736
   R11        2.96353  -0.00566  -0.01647   0.00241  -0.01406   2.94947
   R12        2.08778  -0.00024  -0.00340   0.00305  -0.00035   2.08742
   R13        2.08778  -0.00024  -0.00340   0.00305  -0.00036   2.08742
   R14        2.96190  -0.00485  -0.01656   0.00467  -0.01188   2.95001
   R15        2.08784  -0.00029  -0.00341   0.00293  -0.00048   2.08736
   R16        2.08784  -0.00029  -0.00341   0.00292  -0.00048   2.08736
   R17        2.95418  -0.00580  -0.01831   0.00442  -0.01388   2.94030
   R18        2.08824  -0.00050  -0.00376   0.00283  -0.00093   2.08730
   R19        2.08824  -0.00050  -0.00376   0.00282  -0.00093   2.08730
   R20        2.08183  -0.00043  -0.00297   0.00215  -0.00082   2.08101
   R21        2.08183  -0.00043  -0.00298   0.00216  -0.00082   2.08101
   R22        2.08309  -0.00105  -0.00333   0.00114  -0.00219   2.08090
    A1        1.93547  -0.00064   0.00043  -0.00310  -0.00268   1.93279
    A2        1.94168  -0.00253  -0.00392  -0.00910  -0.01304   1.92864
    A3        1.93547  -0.00064   0.00043  -0.00310  -0.00268   1.93279
    A4        1.88295   0.00158   0.00076   0.00606   0.00680   1.88975
    A5        1.88303   0.00086   0.00167   0.00401   0.00569   1.88872
    A6        1.88295   0.00158   0.00076   0.00606   0.00680   1.88975
    A7        1.97445  -0.00337  -0.00635  -0.00781  -0.01419   1.96026
    A8        1.90816   0.00073  -0.00074   0.00067  -0.00009   1.90807
    A9        1.90817   0.00073  -0.00074   0.00067  -0.00010   1.90807
   A10        1.90302   0.00113   0.00325   0.00066   0.00392   1.90694
   A11        1.90302   0.00113   0.00326   0.00066   0.00392   1.90694
   A12        1.86376  -0.00018   0.00171   0.00595   0.00768   1.87144
   A13        1.97645  -0.00413  -0.00762  -0.00908  -0.01672   1.95973
   A14        1.90407   0.00123   0.00189   0.00135   0.00323   1.90730
   A15        1.90407   0.00123   0.00188   0.00136   0.00322   1.90730
   A16        1.90555   0.00113   0.00158   0.00080   0.00237   1.90792
   A17        1.90555   0.00113   0.00158   0.00080   0.00237   1.90792
   A18        1.86486  -0.00039   0.00111   0.00562   0.00673   1.87159
   A19        1.97624  -0.00419  -0.00733  -0.00966  -0.01701   1.95924
   A20        1.90486   0.00120   0.00165   0.00121   0.00284   1.90770
   A21        1.90486   0.00120   0.00164   0.00121   0.00284   1.90770
   A22        1.90485   0.00120   0.00165   0.00121   0.00284   1.90770
   A23        1.90485   0.00120   0.00164   0.00121   0.00284   1.90770
   A24        1.86491  -0.00040   0.00116   0.00569   0.00685   1.87176
   A25        1.97646  -0.00413  -0.00762  -0.00908  -0.01672   1.95973
   A26        1.90555   0.00113   0.00158   0.00080   0.00237   1.90792
   A27        1.90555   0.00113   0.00158   0.00080   0.00237   1.90792
   A28        1.90407   0.00123   0.00189   0.00135   0.00322   1.90730
   A29        1.90407   0.00123   0.00188   0.00136   0.00322   1.90730
   A30        1.86487  -0.00039   0.00111   0.00562   0.00673   1.87159
   A31        1.97445  -0.00337  -0.00636  -0.00781  -0.01418   1.96026
   A32        1.90302   0.00113   0.00326   0.00065   0.00392   1.90694
   A33        1.90302   0.00113   0.00325   0.00066   0.00392   1.90694
   A34        1.90816   0.00073  -0.00074   0.00067  -0.00010   1.90807
   A35        1.90816   0.00073  -0.00074   0.00067  -0.00010   1.90807
   A36        1.86376  -0.00018   0.00171   0.00595   0.00768   1.87144
   A37        1.93547  -0.00064   0.00043  -0.00310  -0.00268   1.93279
   A38        1.93546  -0.00064   0.00043  -0.00310  -0.00267   1.93279
   A39        1.94168  -0.00253  -0.00392  -0.00910  -0.01304   1.92864
   A40        1.88303   0.00086   0.00167   0.00401   0.00569   1.88872
   A41        1.88295   0.00158   0.00076   0.00607   0.00680   1.88975
   A42        1.88295   0.00158   0.00076   0.00606   0.00680   1.88975
    D1       -1.04586  -0.00012  -0.00134  -0.00048  -0.00181  -1.04767
    D2        1.07842  -0.00043  -0.00195  -0.00444  -0.00638   1.07204
    D3        3.11304   0.00018  -0.00074   0.00348   0.00275   3.11580
    D4        3.14159   0.00000   0.00000   0.00000   0.00000   3.14159
    D5       -1.01731  -0.00031  -0.00061  -0.00396  -0.00457  -1.02188
    D6        1.01731   0.00031   0.00060   0.00396   0.00457   1.02188
    D7        1.04586   0.00012   0.00135   0.00048   0.00181   1.04767
    D8       -3.11304  -0.00018   0.00074  -0.00348  -0.00275  -3.11580
    D9       -1.07843   0.00043   0.00195   0.00444   0.00638  -1.07204
   D10        3.14159   0.00000   0.00000   0.00000   0.00000   3.14159
   D11        1.01567   0.00045   0.00174   0.00412   0.00586   1.02153
   D12       -1.01567  -0.00045  -0.00174  -0.00412  -0.00586  -1.02153
   D13        1.01443   0.00052   0.00291   0.00392   0.00681   1.02123
   D14       -1.11150   0.00097   0.00464   0.00804   0.01267  -1.09883
   D15        3.14035   0.00007   0.00116  -0.00020   0.00095   3.14130
   D16       -1.01442  -0.00052  -0.00290  -0.00392  -0.00681  -1.02123
   D17       -3.14035  -0.00007  -0.00116   0.00020  -0.00095  -3.14130
   D18        1.11150  -0.00097  -0.00464  -0.00804  -0.01267   1.09883
   D19        3.14159   0.00000   0.00000   0.00000   0.00000   3.14159
   D20        1.01613   0.00043   0.00163   0.00409   0.00572   1.02185
   D21       -1.01613  -0.00043  -0.00164  -0.00408  -0.00572  -1.02186
   D22       -1.01650  -0.00040  -0.00157  -0.00382  -0.00539  -1.02188
   D23        3.14123   0.00003   0.00006   0.00027   0.00033   3.14156
   D24        1.10896  -0.00083  -0.00321  -0.00791  -0.01111   1.09785
   D25        1.01649   0.00040   0.00158   0.00382   0.00539   1.02188
   D26       -1.10897   0.00083   0.00321   0.00791   0.01111  -1.09785
   D27       -3.14123  -0.00003  -0.00006  -0.00027  -0.00033  -3.14157
   D28       -3.14159   0.00000   0.00000   0.00000   0.00000  -3.14159
   D29        1.01649   0.00040   0.00157   0.00382   0.00539   1.02188
   D30       -1.01649  -0.00040  -0.00158  -0.00382  -0.00539  -1.02188
   D31       -1.01613  -0.00043  -0.00163  -0.00409  -0.00573  -1.02186
   D32       -3.14123  -0.00003  -0.00006  -0.00027  -0.00034  -3.14156
   D33        1.10897  -0.00083  -0.00321  -0.00791  -0.01111   1.09785
   D34        1.01613   0.00043   0.00164   0.00408   0.00572   1.02186
   D35       -1.10897   0.00083   0.00321   0.00791   0.01111  -1.09785
   D36        3.14123   0.00003   0.00006   0.00027   0.00033   3.14157
   D37       -3.14159   0.00000   0.00000   0.00000   0.00000  -3.14159
   D38        1.01443   0.00052   0.00290   0.00392   0.00681   1.02123
   D39       -1.01442  -0.00052  -0.00291  -0.00392  -0.00681  -1.02123
   D40       -1.01567  -0.00045  -0.00174  -0.00412  -0.00586  -1.02153
   D41        3.14035   0.00007   0.00116  -0.00020   0.00095   3.14130
   D42        1.11150  -0.00097  -0.00464  -0.00804  -0.01267   1.09883
   D43        1.01567   0.00045   0.00174   0.00411   0.00586   1.02153
   D44       -1.11150   0.00097   0.00465   0.00804   0.01266  -1.09883
   D45       -3.14035  -0.00007  -0.00116   0.00020  -0.00095  -3.14130
   D46       -1.04586  -0.00012  -0.00135  -0.00048  -0.00181  -1.04767
   D47        1.04586   0.00012   0.00134   0.00048   0.00182   1.04767
   D48        3.14159   0.00000   0.00000   0.00000   0.00000   3.14159
   D49        1.07842  -0.00043  -0.00195  -0.00444  -0.00638   1.07204
   D50       -3.11305  -0.00018   0.00074  -0.00348  -0.00275  -3.11580
   D51       -1.01731  -0.00031  -0.00060  -0.00396  -0.00457  -1.02188
   D52        3.11304   0.00018  -0.00074   0.00348   0.00275   3.11580
   D53       -1.07843   0.00043   0.00195   0.00444   0.00638  -1.07204
   D54        1.01731   0.00031   0.00061   0.00396   0.00457   1.02188
         Item               Value     Threshold  Converged?
 Maximum Force            0.005796     0.000015     NO 
 RMS     Force            0.001643     0.000010     NO 
 Maximum Displacement     0.057528     0.000060     NO 
 RMS     Displacement     0.023818     0.000040     NO 
 Predicted change in Energy=-4.984341D-04
 GradGradGradGradGradGradGradGradGradGradGradGradGradGradGradGradGradGrad

                          Input orientation:                          
 ---------------------------------------------------------------------
 Center     Atomic      Atomic             Coordinates (Angstroms)
 Number     Number       Type             X           Y           Z
 ---------------------------------------------------------------------
      1          6           0        0.374330   -1.427627   -2.263731
      2          6           0        0.810612   -2.788969   -1.649440
      3          6           0        2.086880   -2.656220   -0.760345
      4          6           0        2.523882   -4.022181   -0.144516
      5          6           0        3.799938   -3.888702    0.744265
      6          6           0        4.237615   -5.254569    1.360557
      7          6           0        5.509677   -5.122316    2.246736
      8          1           0        0.147537   -0.697101   -1.471524
      9          1           0       -0.526612   -1.555358   -2.883855
     10          1           0        1.173370   -1.011624   -2.897113
     11          1           0       -0.016160   -3.197309   -1.041375
     12          1           0        1.006300   -3.510800   -2.462277
     13          1           0        1.891448   -1.934653    0.052828
     14          1           0        2.913994   -2.248169   -1.368194
     15          1           0        2.719234   -4.743607   -0.957879
     16          1           0        1.696596   -4.430061    0.463273
     17          1           0        3.604811   -3.167353    1.557705
     18          1           0        4.627356   -3.480870    0.136682
     19          1           0        4.432352   -5.975715    0.546884
     20          1           0        3.409892   -5.662226    1.967787
     21          1           0        6.358143   -4.741874    1.656766
     22          1           0        5.332310   -4.427349    3.082354
     23          1           0        5.791497   -6.100999    2.665454
 ---------------------------------------------------------------------
                    Distance matrix (angstroms):
                    1          2          3          4          5
     1  C    0.000000
     2  C    1.555940   0.000000
     3  C    2.588906   1.561080   0.000000
     4  C    3.980372   2.592471   1.560790   0.000000
     5  C    5.180707   3.984383   2.591801   1.560791   0.000000
     6  C    6.534977   5.184941   3.984383   2.592471   1.561080
     7  C    7.769610   6.534976   5.180706   3.980372   2.588906
     8  H    1.101224   2.201643   2.846923   4.296990   5.332548
     9  H    1.101166   2.198578   3.542814   4.784842   6.109566
    10  H    1.101224   2.201644   2.846923   4.296990   5.332548
    11  H    2.185958   1.104553   2.189641   2.817194   4.269559
    12  H    2.185959   1.104553   2.189642   2.817194   4.269559
    13  H    2.815167   2.189927   1.104583   2.190135   2.817575
    14  H    2.815167   2.189926   1.104583   2.190135   2.817574
    15  H    4.266093   2.818103   2.189995   1.104616   2.189995
    16  H    4.266093   2.818104   2.189995   1.104616   2.189995
    17  H    5.297738   4.270421   2.817575   2.190135   1.104583
    18  H    5.297737   4.270420   2.817574   2.190135   1.104583
    19  H    6.712094   5.300584   4.269559   2.817195   2.189642
    20  H    6.712094   5.300584   4.269559   2.817194   2.189642
    21  H    7.884196   6.746846   5.332548   4.296991   2.846923
    22  H    7.884194   6.746845   5.332546   4.296989   2.846922
    23  H    8.688094   7.375437   6.109566   4.784843   3.542814
                    6          7          8          9         10
     6  C    0.000000
     7  C    1.555940   0.000000
     8  H    6.746846   7.884195   0.000000
     9  H    7.375437   8.688093   1.784870   0.000000
    10  H    6.746846   7.884196   1.784253   1.784870   0.000000
    11  H    5.300584   6.712094   2.542217   2.520179   3.104185
    12  H    5.300584   6.712094   3.104185   2.520179   2.542218
    13  H    4.270422   5.297737   2.626101   3.822955   3.173290
    14  H    4.270421   5.297737   3.173290   3.822955   2.626102
    15  H    2.818104   4.266094   4.821998   4.940631   4.480851
    16  H    2.818104   4.266093   4.480850   4.940632   4.821999
    17  H    2.189927   2.815166   5.218344   6.276515   5.514025
    18  H    2.189926   2.815167   5.514025   6.276514   5.218343
    19  H    1.104553   2.185959   7.092064   7.476688   6.864713
    20  H    1.104553   2.185959   6.864713   7.476688   7.092064
    21  H    2.201644   1.101224   8.044750   8.841435   7.844390
    22  H    2.201643   1.101224   7.844388   8.841434   8.044749
    23  H    2.198579   1.101166   8.841435   9.559090   8.841436
                   11         12         13         14         15
    11  H    0.000000
    12  H    1.778388   0.000000
    13  H    2.535853   3.097334   0.000000
    14  H    3.097334   2.535853   1.778537   0.000000
    15  H    3.143308   2.591750   3.097900   2.536434   0.000000
    16  H    2.591751   3.143309   2.536434   3.097899   1.778700
    17  H    4.457302   4.799007   2.592261   3.143725   3.097900
    18  H    4.799006   4.457300   3.143726   2.592260   2.536434
    19  H    5.480088   5.183502   4.799007   4.457301   2.591752
    20  H    5.183502   5.480087   4.457302   4.799006   3.143308
    21  H    7.092064   6.864713   5.514025   5.218343   4.480852
    22  H    6.864711   7.092063   5.218342   5.514023   4.821998
    23  H    7.476688   7.476688   6.276515   6.276514   4.940633
                   16         17         18         19         20
    16  H    0.000000
    17  H    2.536434   0.000000
    18  H    3.097899   1.778538   0.000000
    19  H    3.143310   3.097334   2.535852   0.000000
    20  H    2.591751   2.535853   3.097334   1.778388   0.000000
    21  H    4.821999   3.173289   2.626102   2.542218   3.104185
    22  H    4.480849   2.626099   3.173289   3.104185   2.542218
    23  H    4.940633   3.822955   3.822956   2.520181   2.520180
                   21         22         23
[...]
     11          1           0       -0.015741   -3.197261   -1.041797
     12          1           0        1.006064   -3.510550   -2.461789
     13          1           0        1.890981   -1.935034    0.051886
     14          1           0        2.912893   -2.248355   -1.368255
     15          1           0        2.718992   -4.743304   -0.957355
     16          1           0        1.697057   -4.429975    0.462819
     17          1           0        3.605235   -3.168375    1.557545
     18          1           0        4.627146   -3.481697    0.137405
     19          1           0        4.432104   -5.975457    0.547363
     20          1           0        3.410299   -5.662168    1.967355
     21          1           0        6.357505   -4.741691    1.656790
     22          1           0        5.332154   -4.427315    3.081711
     23          1           0        5.793515   -6.100505    2.666797
 ---------------------------------------------------------------------
                    Distance matrix (angstroms):
                    1          2          3          4          5
     1  C    0.000000
     2  C    1.555962   0.000000
     3  C    2.589369   1.560841   0.000000
     4  C    3.981208   2.593185   1.560707   0.000000
     5  C    5.182108   3.985365   2.592739   1.560707   0.000000
     6  C    6.536572   5.186370   3.985365   2.593185   1.560841
     7  C    7.771475   6.536572   5.182108   3.981208   2.589369
     8  H    1.100827   2.200535   2.846014   4.296326   5.332512
     9  H    1.100924   2.199885   3.543793   4.786785   6.111664
    10  H    1.100827   2.200535   2.846014   4.296326   5.332512
    11  H    2.186073   1.104084   2.188561   2.817015   4.269569
    12  H    2.186073   1.104084   2.188561   2.817015   4.269569
    13  H    2.815096   2.189128   1.104100   2.189674   2.818437
    14  H    2.815096   2.189128   1.104100   2.189674   2.818437
    15  H    4.266689   2.818552   2.189423   1.104116   2.189423
    16  H    4.266689   2.818552   2.189423   1.104116   2.189423
    17  H    5.299145   4.271264   2.818437   2.189674   1.104100
    18  H    5.299145   4.271264   2.818437   2.189674   1.104100
    19  H    6.712841   5.301176   4.269569   2.817015   2.188561
    20  H    6.712841   5.301176   4.269569   2.817015   2.188561
    21  H    7.884581   6.746935   5.332512   4.296326   2.846014
    22  H    7.884581   6.746935   5.332512   4.296326   2.846014
    23  H    8.690769   7.378073   6.111664   4.786785   3.543793
                    6          7          8          9         10
     6  C    0.000000
     7  C    1.555962   0.000000
     8  H    6.746935   7.884581   0.000000
     9  H    7.378073   8.690769   1.784537   0.000000
    10  H    6.746935   7.884581   1.783418   1.784537   0.000000
    11  H    5.301176   6.712841   2.541688   2.522118   3.103184
    12  H    5.301176   6.712841   3.103184   2.522118   2.541688
    13  H    4.271264   5.299145   2.624930   3.823139   3.171776
    14  H    4.271264   5.299145   3.171777   3.823139   2.624930
    15  H    2.818552   4.266689   4.821049   4.942586   4.480238
    16  H    2.818552   4.266689   4.480238   4.942586   4.821049
    17  H    2.189128   2.815096   5.218522   6.278430   5.513881
    18  H    2.189128   2.815096   5.513881   6.278430   5.218522
    19  H    1.104084   2.186073   7.091255   7.478632   6.864133
    20  H    1.104084   2.186073   6.864133   7.478632   7.091255
    21  H    2.200535   1.100827   8.043601   8.842501   7.843401
    22  H    2.200535   1.100827   7.843401   8.842501   8.043601
    23  H    2.199885   1.100924   8.842501   9.562847   8.842501
                   11         12         13         14         15
    11  H    0.000000
    12  H    1.777248   0.000000
    13  H    2.534748   3.095786   0.000000
    14  H    3.095786   2.534748   1.777434   0.000000
    15  H    3.142633   2.591742   3.096861   2.535982   0.000000
    16  H    2.591742   3.142633   2.535982   3.096861   1.777476
    17  H    4.457452   4.798731   2.593609   3.144214   3.096861
    18  H    4.798731   4.457452   3.144214   2.593609   2.535982
    19  H    5.479701   5.183484   4.798731   4.457452   2.591742
    20  H    5.183484   5.479701   4.457452   4.798731   3.142633
    21  H    7.091255   6.864133   5.513881   5.218522   4.480238
    22  H    6.864133   7.091255   5.218522   5.513881   4.821049
    23  H    7.478632   7.478633   6.278430   6.278430   4.942586
                   16         17         18         19         20
    16  H    0.000000
    17  H    2.535982   0.000000
    18  H    3.096861   1.777434   0.000000
    19  H    3.142633   3.095786   2.534748   0.000000
    20  H    2.591742   2.534748   3.095786   1.777248   0.000000
    21  H    4.821049   3.171777   2.624930   2.541688   3.103184
    22  H    4.480238   2.624930   3.171776   3.103184   2.541688
    23  H    4.942586   3.823139   3.823140   2.522118   2.522118
                   21         22         23
    21  H    0.000000
    22  H    1.783418   0.000000
    23  H    1.784537   1.784537   0.000000
 Stoichiometry    C7H16
 Framework group  C1[X(C7H16)]
 Deg. of freedom    63
 Full point group                 C1      NOp   1
 Largest Abelian subgroup         C1      NOp   1
 Largest concise Abelian subgroup C1      NOp   1
                         Standard orientation:                         
 ---------------------------------------------------------------------
 Center     Atomic      Atomic             Coordinates (Angstroms)
 Number     Number       Type             X           Y           Z
 ---------------------------------------------------------------------
      1          6           0       -3.885738   -0.358052    0.000000
      2          6           0       -2.593185    0.508161    0.000000
      3          6           0       -1.296369   -0.360455    0.000000
      4          6           0        0.000000    0.508585    0.000000
      5          6           0        1.296369   -0.360455    0.000000
      6          6           0        2.593185    0.508161    0.000000
      7          6           0        3.885738   -0.358052    0.000000
      8          1           0       -3.921701   -1.002553   -0.891709
      9          1           0       -4.781424    0.282090    0.000000
     10          1           0       -3.921700   -1.002553    0.891709
     11          1           0       -2.591742    1.163407   -0.888624
     12          1           0       -2.591742    1.163406    0.888624
     13          1           0       -1.296804   -1.015604   -0.888717
     14          1           0       -1.296804   -1.015604    0.888717
     15          1           0        0.000000    1.163732    0.888738
     16          1           0        0.000000    1.163732   -0.888738
     17          1           0        1.296804   -1.015604   -0.888717
     18          1           0        1.296804   -1.015604    0.888717
     19          1           0        2.591742    1.163406    0.888624
     20          1           0        2.591742    1.163407   -0.888624
     21          1           0        3.921701   -1.002553    0.891709
     22          1           0        3.921700   -1.002553   -0.891709
     23          1           0        4.781424    0.282089    0.000000
 ---------------------------------------------------------------------
 Rotational constants (GHZ):     11.6944870      0.7046511      0.6847119

 **********************************************************************

            Population analysis using the SCF density.

 **********************************************************************

 Orbital symmetries:
       Occupied  (A) (A) (A) (A) (A) (A) (A) (A) (A) (A) (A) (A)
                 (A) (A) (A) (A) (A) (A) (A) (A) (A) (A) (A) (A)
                 (A) (A) (A) (A) (A)
       Virtual   (A) (A) (A) (A) (A) (A) (A) (A) (A) (A) (A) (A)
                 (A) (A) (A) (A) (A) (A) (A) (A) (A) (A)
 The electronic state is 1-A.
 Alpha  occ. eigenvalues --  -10.00725 -10.00724 -10.00467 -10.00398 -10.00323
 Alpha  occ. eigenvalues --   -9.99971  -9.99971  -0.75920  -0.73183  -0.68765
 Alpha  occ. eigenvalues --   -0.63123  -0.57306  -0.53969  -0.53916  -0.44147
 Alpha  occ. eigenvalues --   -0.41664  -0.38999  -0.37975  -0.37875  -0.35993
 Alpha  occ. eigenvalues --   -0.33965  -0.32394  -0.31655  -0.30724  -0.29433
 Alpha  occ. eigenvalues --   -0.28910  -0.28357  -0.27900  -0.25287
 Alpha virt. eigenvalues --    0.32553   0.36211   0.38453   0.38952   0.39452
 Alpha virt. eigenvalues --    0.39877   0.42060   0.42637   0.45567   0.46455
 Alpha virt. eigenvalues --    0.46812   0.47880   0.48512   0.48558   0.49748
 Alpha virt. eigenvalues --    0.49994   0.50627   0.50897   0.51667   0.52424
 Alpha virt. eigenvalues --    0.53133   0.55542
          Condensed to atoms (all electrons):
               1          2          3          4          5          6
     1  C    4.785607   0.359436  -0.019948   0.000600  -0.000004   0.000000
     2  C    0.359436   4.776179   0.358320  -0.019063   0.000585  -0.000003
     3  C   -0.019948   0.358320   4.787977   0.358212  -0.019002   0.000585
     4  C    0.000600  -0.019063   0.358212   4.788155   0.358212  -0.019063
     5  C   -0.000004   0.000585  -0.019002   0.358212   4.787977   0.358320
     6  C    0.000000  -0.000003   0.000585  -0.019063   0.358320   4.776179
     7  C    0.000000   0.000000  -0.000004   0.000600  -0.019948   0.359436
     8  H    0.379494  -0.019571  -0.001955   0.000006   0.000000   0.000000
     9  H    0.379548  -0.018567   0.001146  -0.000013   0.000000   0.000000
    10  H    0.379494  -0.019571  -0.001955   0.000006   0.000000   0.000000
    11  H   -0.021184   0.378132  -0.021338  -0.001942   0.000004   0.000000
    12  H   -0.021184   0.378132  -0.021338  -0.001942   0.000004   0.000000
    13  H   -0.001921  -0.021236   0.377535  -0.021210  -0.001946   0.000005
    14  H   -0.001921  -0.021236   0.377535  -0.021210  -0.001946   0.000005
    15  H    0.000005  -0.001947  -0.021220   0.377499  -0.021220  -0.001947
    16  H    0.000005  -0.001947  -0.021220   0.377499  -0.021220  -0.001947
    17  H    0.000000   0.000005  -0.001946  -0.021210   0.377535  -0.021236
    18  H    0.000000   0.000005  -0.001946  -0.021210   0.377535  -0.021236
    19  H    0.000000   0.000000   0.000004  -0.001942  -0.021338   0.378132
    20  H    0.000000   0.000000   0.000004  -0.001942  -0.021338   0.378132
    21  H    0.000000   0.000000   0.000000   0.000006  -0.001955  -0.019571
    22  H    0.000000   0.000000   0.000000   0.000006  -0.001955  -0.019571
    23  H    0.000000   0.000000   0.000000  -0.000013   0.001146  -0.018567
               7          8          9         10         11         12
     1  C    0.000000   0.379494   0.379548   0.379494  -0.021184  -0.021184
     2  C    0.000000  -0.019571  -0.018567  -0.019571   0.378132   0.378132
     3  C   -0.000004  -0.001955   0.001146  -0.001955  -0.021338  -0.021338
     4  C    0.000600   0.000006  -0.000013   0.000006  -0.001942  -0.001942
     5  C   -0.019948   0.000000   0.000000   0.000000   0.000004   0.000004
     6  C    0.359436   0.000000   0.000000   0.000000   0.000000   0.000000
     7  C    4.785607   0.000000   0.000000   0.000000   0.000000   0.000000
     8  H    0.000000   0.613492  -0.020907  -0.021155  -0.002171   0.001807
     9  H    0.000000  -0.020907   0.612426  -0.020907  -0.002051  -0.002051
    10  H    0.000000  -0.021155  -0.020907   0.613492   0.001807  -0.002171
    11  H    0.000000  -0.002171  -0.002051   0.001807   0.625053  -0.022909
    12  H    0.000000   0.001807  -0.002051  -0.002171  -0.022909   0.625053
    13  H    0.000000   0.000534   0.000006  -0.000012  -0.002205   0.001817
    14  H    0.000000  -0.000012   0.000006   0.000534   0.001817  -0.002205
    15  H    0.000005   0.000000   0.000000   0.000002  -0.000002   0.000541
    16  H    0.000005   0.000002   0.000000   0.000000   0.000541  -0.000002
    17  H   -0.001921   0.000000   0.000000   0.000000   0.000002   0.000000
    18  H   -0.001921   0.000000   0.000000   0.000000   0.000000   0.000002
    19  H   -0.021184   0.000000   0.000000   0.000000   0.000000   0.000000
    20  H   -0.021184   0.000000   0.000000   0.000000   0.000000   0.000000
    21  H    0.379494   0.000000   0.000000   0.000000   0.000000   0.000000
    22  H    0.379494   0.000000   0.000000   0.000000   0.000000   0.000000
    23  H    0.379548   0.000000   0.000000   0.000000   0.000000   0.000000
              13         14         15         16         17         18
     1  C   -0.001921  -0.001921   0.000005   0.000005   0.000000   0.000000
     2  C   -0.021236  -0.021236  -0.001947  -0.001947   0.000005   0.000005
     3  C    0.377535   0.377535  -0.021220  -0.021220  -0.001946  -0.001946
     4  C   -0.021210  -0.021210   0.377499   0.377499  -0.021210  -0.021210
     5  C   -0.001946  -0.001946  -0.021220  -0.021220   0.377535   0.377535
     6  C    0.000005   0.000005  -0.001947  -0.001947  -0.021236  -0.021236
     7  C    0.000000   0.000000   0.000005   0.000005  -0.001921  -0.001921
     8  H    0.000534  -0.000012   0.000000   0.000002   0.000000   0.000000
     9  H    0.000006   0.000006   0.000000   0.000000   0.000000   0.000000
    10  H   -0.000012   0.000534   0.000002   0.000000   0.000000   0.000000
    11  H   -0.002205   0.001817  -0.000002   0.000541   0.000002   0.000000
    12  H    0.001817  -0.002205   0.000541  -0.000002   0.000000   0.000002
    13  H    0.626426  -0.022993   0.001812  -0.002193   0.000533  -0.000001
    14  H   -0.022993   0.626426  -0.002193   0.001812  -0.000001   0.000533
    15  H    0.001812  -0.002193   0.626606  -0.023015   0.001812  -0.002193
    16  H   -0.002193   0.001812  -0.023015   0.626606  -0.002193   0.001812
    17  H    0.000533  -0.000001   0.001812  -0.002193   0.626426  -0.022993
    18  H   -0.000001   0.000533  -0.002193   0.001812  -0.022993   0.626426
    19  H    0.000000   0.000002   0.000541  -0.000002   0.001817  -0.002205
    20  H    0.000002   0.000000  -0.000002   0.000541  -0.002205   0.001817
    21  H    0.000000   0.000000   0.000002   0.000000  -0.000012   0.000534
    22  H    0.000000   0.000000   0.000000   0.000002   0.000534  -0.000012
    23  H    0.000000   0.000000   0.000000   0.000000   0.000006   0.000006
              19         20         21         22         23
     1  C    0.000000   0.000000   0.000000   0.000000   0.000000
     2  C    0.000000   0.000000   0.000000   0.000000   0.000000
     3  C    0.000004   0.000004   0.000000   0.000000   0.000000
     4  C   -0.001942  -0.001942   0.000006   0.000006  -0.000013
     5  C   -0.021338  -0.021338  -0.001955  -0.001955   0.001146
     6  C    0.378132   0.378132  -0.019571  -0.019571  -0.018567
     7  C   -0.021184  -0.021184   0.379494   0.379494   0.379548
     8  H    0.000000   0.000000   0.000000   0.000000   0.000000
     9  H    0.000000   0.000000   0.000000   0.000000   0.000000
    10  H    0.000000   0.000000   0.000000   0.000000   0.000000
    11  H    0.000000   0.000000   0.000000   0.000000   0.000000
    12  H    0.000000   0.000000   0.000000   0.000000   0.000000
    13  H    0.000000   0.000002   0.000000   0.000000   0.000000
    14  H    0.000002   0.000000   0.000000   0.000000   0.000000
    15  H    0.000541  -0.000002   0.000002   0.000000   0.000000
    16  H   -0.000002   0.000541   0.000000   0.000002   0.000000
    17  H    0.001817  -0.002205  -0.000012   0.000534   0.000006
    18  H   -0.002205   0.001817   0.000534  -0.000012   0.000006
    19  H    0.625053  -0.022909  -0.002171   0.001807  -0.002051
    20  H   -0.022909   0.625053   0.001807  -0.002171  -0.002051
    21  H   -0.002171   0.001807   0.613492  -0.021155  -0.020907
    22  H    0.001807  -0.002171  -0.021155   0.613492  -0.020907
    23  H   -0.002051  -0.002051  -0.020907  -0.020907   0.612426
 Mulliken charges:
               1
     1  C   -0.218025
     2  C   -0.127652
     3  C   -0.129448
     4  C   -0.130038
     5  C   -0.129448
     6  C   -0.127652
     7  C   -0.218025
     8  H    0.070436
     9  H    0.071364
    10  H    0.070436
    11  H    0.066446
    12  H    0.066446
    13  H    0.065049
    14  H    0.065049
    15  H    0.064916
    16  H    0.064916
    17  H    0.065049
    18  H    0.065049
    19  H    0.066446
    20  H    0.066446
    21  H    0.070436
    22  H    0.070436
    23  H    0.071364
 Sum of Mulliken charges =   0.00000
 Mulliken charges with hydrogens summed into heavy atoms:
               1
     1  C   -0.005788
     2  C    0.005241
     3  C    0.000650
     4  C   -0.000206
     5  C    0.000650
     6  C    0.005241
     7  C   -0.005788
 Electronic spatial extent (au):  <R**2>=           1736.2845
 Charge=              0.0000 electrons
 Dipole moment (field-independent basis, Debye):
    X=              0.0000    Y=              0.0196    Z=              0.0000  Tot=              0.0196
 Quadrupole moment (field-independent basis, Debye-Ang):
   XX=            -45.6257   YY=            -44.9187   ZZ=            -44.2661
   XY=              0.0000   XZ=              0.0000   YZ=              0.0000
 Traceless Quadrupole moment (field-independent basis, Debye-Ang):
   XX=             -0.6889   YY=              0.0181   ZZ=              0.6707
   XY=              0.0000   XZ=              0.0000   YZ=              0.0000
 Octapole moment (field-independent basis, Debye-Ang**2):
  XXX=              0.0000  YYY=              0.0479  ZZZ=              0.0000  XYY=              0.0000
  XXY=              2.0610  XXZ=              0.0000  XZZ=              0.0000  YZZ=             -0.5796
  YYZ=              0.0000  XYZ=              0.0000
 Hexadecapole moment (field-independent basis, Debye-Ang**3):
 XXXX=          -2020.8111 YYYY=           -150.0987 ZZZZ=            -84.1436 XXXY=              0.0000
 XXXZ=              0.0000 YYYX=              0.0000 YYYZ=              0.0000 ZZZX=              0.0000
 ZZZY=              0.0000 XXYY=           -358.8485 XXZZ=           -346.6526 YYZZ=            -33.6696
 XXYZ=              0.0000 YYXZ=              0.0000 ZZXY=              0.0000
 N-N= 3.030711829683D+02 E-N=-1.236010337254D+03  KE= 2.682263970255D+02
 1\1\GINC-MW\FOpt\RB3LYP\STO-3G\C7H16\BING\25-Feb-2019\0\\# opt(tight) 
 b3lyp/sto-3g\\c07h16\\0,1\C,0.3736526518,-1.4272921627,-2.2642924277\C
 ,0.8102161944,-2.7884922046,-1.6498301632\C,2.0862626497,-2.6565453109
 ,-0.7607174901\C,2.5239854602,-4.0219971231,-0.144482912\C,3.799941354
 7,-3.8894726775,0.744437097\C,4.2381636051,-5.2547714236,1.3609972963\
 C,5.5102331254,-5.1228685739,2.2472579404\H,0.1480336631,-0.6975355149
 ,-1.4715943064\H,-0.5270778326,-1.5530760167,-2.8846932385\H,1.1733853
 845,-1.0119117509,-2.8965152342\H,-0.0157407906,-3.1972614839,-1.04179
 70745\H,1.0060639948,-3.5105503021,-2.4617890532\H,1.8909810167,-1.935
 0338712,0.0518855783\H,2.9128925561,-2.2483554731,-1.3682547456\H,2.71
 89924377,-4.7433039082,-0.9573550207\H,1.6970568173,-4.4299748731,0.46
 28188676\H,3.6052348013,-3.168374963,1.5575452576\H,4.6271462947,-3.48
 16965738,0.1374049037\H,4.432103696,-5.9754570056,0.5473628289\H,3.410
 2989018,-5.6621681594,1.9673547966\H,6.3575052838,-4.7416911851,1.6567
 897404\H,5.3321536648,-4.4273145717,3.0817106595\H,5.7935150545,-6.100
 504865,2.6667967114\\Version=ES64L-G09RevD.01\State=1-A\HF=-273.126725
 2\RMSD=3.903e-09\RMSF=8.279e-07\Dipole=-0.0037265,-0.0066594,-0.001212
 2\Quadrupole=-0.055767,-0.0903038,0.1460708,0.1160369,-0.4245679,0.213
 4423\PG=C01 [X(C7H16)]\\@


 GOD DOES NOT PLAY WITH DICE.
               -- A. EINSTEIN
 Job cpu time:       0 days  0 hours  2 minutes 50.5 seconds.
 File lengths (MBytes):  RWF=      5 Int=      0 D2E=      0 Chk=      2 Scr=      1
 Normal termination of Gaussian 09 at Mon Feb 25 22:16:50 2019.
