 Entering Gaussian System, Link 0=g09
 Input=c08h18.com
 Output=c08h18.out
 Initial command:
 /home/bing/src/g09_d.01/g09/l1.exe "/data/trash/Gau-6182.inp" -scrdir="/data/trash/"
 Entering Link 1 = /home/bing/src/g09_d.01/g09/l1.exe PID=      6184.
  
 Copyright (c) 1988,1990,1992,1993,1995,1998,2003,2009,2013,
            Gaussian, Inc.  All Rights Reserved.
  
 This is part of the Gaussian(R) 09 program.  It is based on
 the Gaussian(R) 03 system (copyright 2003, Gaussian, Inc.),
 the Gaussian(R) 98 system (copyright 1998, Gaussian, Inc.),
 the Gaussian(R) 94 system (copyright 1995, Gaussian, Inc.),
 the Gaussian 92(TM) system (copyright 1992, Gaussian, Inc.),
 the Gaussian 90(TM) system (copyright 1990, Gaussian, Inc.),
 the Gaussian 88(TM) system (copyright 1988, Gaussian, Inc.),
 the Gaussian 86(TM) system (copyright 1986, Carnegie Mellon
 University), and the Gaussian 82(TM) system (copyright 1983,
 Carnegie Mellon University). Gaussian is a federally registered
 trademark of Gaussian, Inc.
  
 This software contains proprietary and confidential information,
 including trade secrets, belonging to Gaussian, Inc.
  
 This software is provided under written license and may be
 used, copied, transmitted, or stored only in accord with that
 written license.
  
 The following legend is applicable only to US Government
 contracts under FAR:
  
                    RESTRICTED RIGHTS LEGEND
  
 Use, reproduction and disclosure by the US Government is
 subject to restrictions as set forth in subparagraphs (a)
 and (c) of the Commercial Computer Software - Restricted
 Rights clause in FAR 52.227-19.
  
 Gaussian, Inc.
 340 Quinnipiac St., Bldg. 40, Wallingford CT 06492
  
  
 ---------------------------------------------------------------
 Warning -- This program may not be used in any manner that
 competes with the business of Gaussian, Inc. or will provide
 assistance to any competitor of Gaussian, Inc.  The licensee
 of this program is prohibited from giving any competitor of
 Gaussian, Inc. access to this program.  By using this program,
 the user acknowledges that Gaussian, Inc. is engaged in the
 business of creating and licensing software in the field of
 computational chemistry and represents and warrants to the
 licensee that it is not a competitor of Gaussian, Inc. and that
 it will not use this program in any manner prohibited above.
 ---------------------------------------------------------------
  

 Cite this work as:
 Gaussian 09, Revision D.01,
 M. J. Frisch, G. W. Trucks, H. B. Schlegel, G. E. Scuseria, 
 M. A. Robb, J. R. Cheeseman, G. Scalmani, V. Barone, B. Mennucci, 
 G. A. Petersson, H. Nakatsuji, M. Caricato, X. Li, H. P. Hratchian, 
 A. F. Izmaylov, J. Bloino, G. Zheng, J. L. Sonnenberg, M. Hada, 
 M. Ehara, K. Toyota, R. Fukuda, J. Hasegawa, M. Ishida, T. Nakajima, 
 Y. Honda, O. Kitao, H. Nakai, T. Vreven, J. A. Montgomery, Jr., 
 J. E. Peralta, F. Ogliaro, M. Bearpark, J. J. Heyd, E. Brothers, 
 K. N. Kudin, V. N. Staroverov, T. Keith, R. Kobayashi, J. Normand, 
 K. Raghavachari, A. Rendell, J. C. Burant, S. S. Iyengar, J. Tomasi, 
 M. Cossi, N. Rega, J. M. Millam, M. Klene, J. E. Knox, J. B. Cross, 
 V. Bakken, C. Adamo, J. Jaramillo, R. Gomperts, R. E. Stratmann, 
 O. Yazyev, A. J. Austin, R. Cammi, C. Pomelli, J. W. Ochterski, 
 R. L. Martin, K. Morokuma, V. G. Zakrzewski, G. A. Voth, 
 P. Salvador, J. J. Dannenberg, S. Dapprich, A. D. Daniels, 
 O. Farkas, J. B. Foresman, J. V. Ortiz, J. Cioslowski, 
 and D. J. Fox, Gaussian, Inc., Wallingford CT, 2013.
 
 ******************************************
 Gaussian 09:  ES64L-G09RevD.01 24-Apr-2013
                25-Feb-2019 
 ******************************************
 %nproc=6
 Will use up to    6 processors via shared memory.
 -------------------------
 # opt(tight) b3lyp/sto-3g
 -------------------------
 1/7=10,14=-1,18=20,19=15,26=3,38=1/1,3;
 2/9=110,12=2,17=6,18=5,40=1/2;
 3/6=3,11=2,16=1,25=1,30=1,71=1,74=-5/1,2,3;
 4//1;
 5/5=2,38=5/2;
 6/7=2,8=2,9=2,10=2,28=1/1;
 7//1,2,3,16;
 1/7=10,14=-1,18=20,19=15,26=3/3(2);
 2/9=110/2;
 99//99;
 2/9=110/2;
 3/6=3,11=2,16=1,25=1,30=1,71=1,74=-5/1,2,3;
 4/5=5,16=3,69=1/1;
 5/5=2,38=5/2;
 7//1,2,3,16;
 1/7=10,14=-1,18=20,19=15,26=3/3(-5);
 2/9=110/2;
 6/7=2,8=2,9=2,10=2,19=2,28=1/1;
 99/9=1/99;
 ------
 c08h18
 ------
 Symbolic Z-matrix:
 Charge =  0 Multiplicity = 1
 C                     0.3773   -1.42802  -2.2615 
 C                     0.8134   -2.78951  -1.64731 
 C                     2.08939  -2.65854  -0.75803 
 C                     2.5262   -4.02457  -0.14232 
 C                     3.80215  -3.89344   0.7469 
 C                     4.23896  -5.25947   1.36261 
 C                     5.51495  -5.1285    2.25189 
 C                     5.95105  -6.48999   2.86608 
 H                     0.15176  -0.69833  -1.46872 
 H                    -0.52343  -1.55353  -2.88196 
 H                     1.17712  -1.01271  -2.89366 
 H                    -0.01287  -3.19807  -1.03956 
 H                     1.00892  -3.51136  -2.45954 
 H                     1.89446  -1.93728   0.05489 
 H                     2.91638  -2.2506   -1.36525 
 H                     2.72076  -4.74557  -0.95558 
 H                     1.69883  -4.43224   0.46459 
 H                     3.60759  -3.17244   1.56016 
 H                     4.62952  -3.48577   0.13999 
 H                     4.43389  -5.98073   0.54969 
 H                     3.41197  -5.66741   1.96984 
 H                     6.34122  -4.71994   1.64415 
 H                     5.31943  -4.40665   3.06412 
 H                     6.1766   -7.21967   2.0733 
 H                     6.85178  -6.36448   3.48654 
 H                     5.15123  -6.9053    3.49824 
 

 GradGradGradGradGradGradGradGradGradGradGradGradGradGradGradGradGradGrad
 Berny optimization.
 Initialization pass.
                           ----------------------------
                           !    Initial Parameters    !
                           ! (Angstroms and Degrees)  !
 --------------------------                            --------------------------
 ! Name  Definition              Value          Derivative Info.                !
 --------------------------------------------------------------------------------
 ! R1    R(1,2)                  1.556          estimate D2E/DX2                !
 ! R2    R(1,9)                  1.1008         estimate D2E/DX2                !
 ! R3    R(1,10)                 1.1009         estimate D2E/DX2                !
 ! R4    R(1,11)                 1.1008         estimate D2E/DX2                !
 ! R5    R(2,3)                  1.5608         estimate D2E/DX2                !
 ! R6    R(2,12)                 1.1041         estimate D2E/DX2                !
 ! R7    R(2,13)                 1.1041         estimate D2E/DX2                !
 ! R8    R(3,4)                  1.5608         estimate D2E/DX2                !
 ! R9    R(3,14)                 1.1041         estimate D2E/DX2                !
 ! R10   R(3,15)                 1.1041         estimate D2E/DX2                !
 ! R11   R(4,5)                  1.5608         estimate D2E/DX2                !
 ! R12   R(4,16)                 1.1041         estimate D2E/DX2                !
 ! R13   R(4,17)                 1.1041         estimate D2E/DX2                !
 ! R14   R(5,6)                  1.5608         estimate D2E/DX2                !
 ! R15   R(5,18)                 1.1041         estimate D2E/DX2                !
 ! R16   R(5,19)                 1.1041         estimate D2E/DX2                !
 ! R17   R(6,7)                  1.5608         estimate D2E/DX2                !
 ! R18   R(6,20)                 1.1041         estimate D2E/DX2                !
 ! R19   R(6,21)                 1.1041         estimate D2E/DX2                !
 ! R20   R(7,8)                  1.556          estimate D2E/DX2                !
 ! R21   R(7,22)                 1.1041         estimate D2E/DX2                !
 ! R22   R(7,23)                 1.1041         estimate D2E/DX2                !
 ! R23   R(8,24)                 1.1008         estimate D2E/DX2                !
 ! R24   R(8,25)                 1.1009         estimate D2E/DX2                !
 ! R25   R(8,26)                 1.1008         estimate D2E/DX2                !
 ! A1    A(2,1,9)              110.6804         estimate D2E/DX2                !
 ! A2    A(2,1,10)             110.6106         estimate D2E/DX2                !
 ! A3    A(2,1,11)             110.6804         estimate D2E/DX2                !
 ! A4    A(9,1,10)             108.289          estimate D2E/DX2                !
 ! A5    A(9,1,11)             108.2011         estimate D2E/DX2                !
 ! A6    A(10,1,11)            108.289          estimate D2E/DX2                !
 ! A7    A(1,2,3)              112.371          estimate D2E/DX2                !
 ! A8    A(1,2,12)             109.349          estimate D2E/DX2                !
 ! A9    A(1,2,13)             109.349          estimate D2E/DX2                !
 ! A10   A(3,2,12)             109.2225         estimate D2E/DX2                !
 ! A11   A(3,2,13)             109.2225         estimate D2E/DX2                !
 ! A12   A(12,2,13)            107.1902         estimate D2E/DX2                !
 ! A13   A(2,3,4)              112.341          estimate D2E/DX2                !
 ! A14   A(2,3,14)             109.268          estimate D2E/DX2                !
 ! A15   A(2,3,15)             109.268          estimate D2E/DX2                !
 ! A16   A(4,3,14)             109.3116         estimate D2E/DX2                !
 ! A17   A(4,3,15)             109.3116         estimate D2E/DX2                !
 ! A18   A(14,3,15)            107.206          estimate D2E/DX2                !
 ! A19   A(3,4,5)              112.335          estimate D2E/DX2                !
 ! A20   A(3,4,16)             109.2862         estimate D2E/DX2                !
 ! A21   A(3,4,17)             109.2862         estimate D2E/DX2                !
 ! A22   A(5,4,16)             109.2964         estimate D2E/DX2                !
 ! A23   A(5,4,17)             109.2964         estimate D2E/DX2                !
 ! A24   A(16,4,17)            107.2065         estimate D2E/DX2                !
 ! A25   A(4,5,6)              112.335          estimate D2E/DX2                !
 ! A26   A(4,5,18)             109.2964         estimate D2E/DX2                !
 ! A27   A(4,5,19)             109.2964         estimate D2E/DX2                !
 ! A28   A(6,5,18)             109.2862         estimate D2E/DX2                !
 ! A29   A(6,5,19)             109.2862         estimate D2E/DX2                !
 ! A30   A(18,5,19)            107.2065         estimate D2E/DX2                !
 ! A31   A(5,6,7)              112.341          estimate D2E/DX2                !
 ! A32   A(5,6,20)             109.3116         estimate D2E/DX2                !
 ! A33   A(5,6,21)             109.3116         estimate D2E/DX2                !
 ! A34   A(7,6,20)             109.268          estimate D2E/DX2                !
 ! A35   A(7,6,21)             109.268          estimate D2E/DX2                !
 ! A36   A(20,6,21)            107.206          estimate D2E/DX2                !
 ! A37   A(6,7,8)              112.371          estimate D2E/DX2                !
 ! A38   A(6,7,22)             109.2225         estimate D2E/DX2                !
 ! A39   A(6,7,23)             109.2225         estimate D2E/DX2                !
 ! A40   A(8,7,22)             109.349          estimate D2E/DX2                !
 ! A41   A(8,7,23)             109.349          estimate D2E/DX2                !
 ! A42   A(22,7,23)            107.1902         estimate D2E/DX2                !
 ! A43   A(7,8,24)             110.6804         estimate D2E/DX2                !
 ! A44   A(7,8,25)             110.6106         estimate D2E/DX2                !
 ! A45   A(7,8,26)             110.6804         estimate D2E/DX2                !
 ! A46   A(24,8,25)            108.289          estimate D2E/DX2                !
 ! A47   A(24,8,26)            108.2011         estimate D2E/DX2                !
 ! A48   A(25,8,26)            108.289          estimate D2E/DX2                !
 ! D1    D(9,1,2,3)            -59.9785         estimate D2E/DX2                !
 ! D2    D(9,1,2,12)            61.4794         estimate D2E/DX2                !
 ! D3    D(9,1,2,13)           178.5635         estimate D2E/DX2                !
 ! D4    D(10,1,2,3)          -180.0            estimate D2E/DX2                !
 ! D5    D(10,1,2,12)          -58.542          estimate D2E/DX2                !
 ! D6    D(10,1,2,13)           58.5421         estimate D2E/DX2                !
 ! D7    D(11,1,2,3)            59.9785         estimate D2E/DX2                !
 ! D8    D(11,1,2,12)         -178.5635         estimate D2E/DX2                !
 ! D9    D(11,1,2,13)          -61.4794         estimate D2E/DX2                !
 ! D10   D(1,2,3,4)           -180.0            estimate D2E/DX2                !
 ! D11   D(1,2,3,14)            58.5052         estimate D2E/DX2                !
 ! D12   D(1,2,3,15)           -58.5052         estimate D2E/DX2                !
 ! D13   D(12,2,3,4)            58.4698         estimate D2E/DX2                !
 ! D14   D(12,2,3,14)          -63.025          estimate D2E/DX2                !
 ! D15   D(12,2,3,15)          179.9646         estimate D2E/DX2                !
 ! D16   D(13,2,3,4)           -58.4698         estimate D2E/DX2                !
 ! D17   D(13,2,3,14)         -179.9645         estimate D2E/DX2                !
 ! D18   D(13,2,3,15)           63.025          estimate D2E/DX2                !
 ! D19   D(2,3,4,5)           -180.0            estimate D2E/DX2                !
 ! D20   D(2,3,4,16)            58.5159         estimate D2E/DX2                !
 ! D21   D(2,3,4,17)           -58.5159         estimate D2E/DX2                !
 ! D22   D(14,3,4,5)           -58.5301         estimate D2E/DX2                !
 ! D23   D(14,3,4,16)          179.9857         estimate D2E/DX2                !
 ! D24   D(14,3,4,17)           62.954          estimate D2E/DX2                !
 ! D25   D(15,3,4,5)            58.5301         estimate D2E/DX2                !
 ! D26   D(15,3,4,16)          -62.954          estimate D2E/DX2                !
 ! D27   D(15,3,4,17)         -179.9857         estimate D2E/DX2                !
 ! D28   D(3,4,5,6)           -180.0            estimate D2E/DX2                !
 ! D29   D(3,4,5,18)            58.5217         estimate D2E/DX2                !
 ! D30   D(3,4,5,19)           -58.5217         estimate D2E/DX2                !
 ! D31   D(16,4,5,6)           -58.5217         estimate D2E/DX2                !
 ! D32   D(16,4,5,18)         -180.0            estimate D2E/DX2                !
 ! D33   D(16,4,5,19)           62.9565         estimate D2E/DX2                !
 ! D34   D(17,4,5,6)            58.5217         estimate D2E/DX2                !
 ! D35   D(17,4,5,18)          -62.9565         estimate D2E/DX2                !
 ! D36   D(17,4,5,19)         -180.0            estimate D2E/DX2                !
 ! D37   D(4,5,6,7)           -180.0            estimate D2E/DX2                !
 ! D38   D(4,5,6,20)            58.5301         estimate D2E/DX2                !
 ! D39   D(4,5,6,21)           -58.5301         estimate D2E/DX2                !
 ! D40   D(18,5,6,7)           -58.5159         estimate D2E/DX2                !
 ! D41   D(18,5,6,20)         -179.9857         estimate D2E/DX2                !
 ! D42   D(18,5,6,21)           62.954          estimate D2E/DX2                !
 ! D43   D(19,5,6,7)            58.5159         estimate D2E/DX2                !
 ! D44   D(19,5,6,20)          -62.954          estimate D2E/DX2                !
 ! D45   D(19,5,6,21)          179.9857         estimate D2E/DX2                !
 ! D46   D(5,6,7,8)           -180.0            estimate D2E/DX2                !
 ! D47   D(5,6,7,22)           -58.4698         estimate D2E/DX2                !
 ! D48   D(5,6,7,23)            58.4698         estimate D2E/DX2                !
 ! D49   D(20,6,7,8)           -58.5052         estimate D2E/DX2                !
 ! D50   D(20,6,7,22)           63.025          estimate D2E/DX2                !
 ! D51   D(20,6,7,23)          179.9646         estimate D2E/DX2                !
 ! D52   D(21,6,7,8)            58.5052         estimate D2E/DX2                !
 ! D53   D(21,6,7,22)         -179.9646         estimate D2E/DX2                !
 ! D54   D(21,6,7,23)          -63.025          estimate D2E/DX2                !
 ! D55   D(6,7,8,24)            59.9785         estimate D2E/DX2                !
 ! D56   D(6,7,8,25)          -180.0            estimate D2E/DX2                !
 ! D57   D(6,7,8,26)           -59.9785         estimate D2E/DX2                !
 ! D58   D(22,7,8,24)          -61.4794         estimate D2E/DX2                !
 ! D59   D(22,7,8,25)           58.5421         estimate D2E/DX2                !
 ! D60   D(22,7,8,26)          178.5636         estimate D2E/DX2                !
 ! D61   D(23,7,8,24)         -178.5635         estimate D2E/DX2                !
 ! D62   D(23,7,8,25)          -58.542          estimate D2E/DX2                !
 ! D63   D(23,7,8,26)           61.4795         estimate D2E/DX2                !
 --------------------------------------------------------------------------------
 Trust Radius=3.00D-01 FncErr=1.00D-07 GrdErr=1.00D-06
 Number of steps in this run=    146 maximum allowed number of steps=    156.
 GradGradGradGradGradGradGradGradGradGradGradGradGradGradGradGradGradGrad

                          Input orientation:                          
 ---------------------------------------------------------------------
 Center     Atomic      Atomic             Coordinates (Angstroms)
 Number     Number       Type             X           Y           Z
 ---------------------------------------------------------------------
      1          6           0        0.377302   -1.428022   -2.261503
      2          6           0        0.813400   -2.789512   -1.647313
      3          6           0        2.089387   -2.658536   -0.758029
      4          6           0        2.526197   -4.024572   -0.142323
      5          6           0        3.802154   -3.893437    0.746904
      6          6           0        4.238964   -5.259474    1.362611
      7          6           0        5.514951   -5.128498    2.251894
      8          6           0        5.951049   -6.489987    2.866085
      9          1           0        0.151755   -0.698334   -1.468724
     10          1           0       -0.523426   -1.553533   -2.881962
     11          1           0        1.177120   -1.012715   -2.893663
     12          1           0       -0.012872   -3.198070   -1.039564
     13          1           0        1.008922   -3.511356   -2.459541
     14          1           0        1.894463   -1.937280    0.054894
     15          1           0        2.916380   -2.250603   -1.365254
     16          1           0        2.720759   -4.745567   -0.955576
     17          1           0        1.698831   -4.432240    0.464588
     18          1           0        3.607592   -3.172443    1.560158
     19          1           0        4.629520   -3.485769    0.139994
     20          1           0        4.433888   -5.980729    0.549687
     21          1           0        3.411971   -5.667406    1.969835
     22          1           0        6.341223   -4.719938    1.644146
     23          1           0        5.319428   -4.406653    3.064123
     24          1           0        6.176596   -7.219675    2.073305
     25          1           0        6.851776   -6.364477    3.486544
     26          1           0        5.151231   -6.905295    3.498244
 ---------------------------------------------------------------------
                    Distance matrix (angstroms):
                    1          2          3          4          5
     1  C    0.000000
     2  C    1.555977   0.000000
     3  C    2.589562   1.560808   0.000000
     4  C    3.981300   2.593076   1.560754   0.000000
     5  C    5.182509   3.985421   2.592948   1.560765   0.000000
     6  C    6.536563   5.186024   3.985307   2.592948   1.560754
     7  C    7.775585   6.540585   5.186024   3.985421   2.593076
     8  C    9.109462   7.775585   6.536563   5.182509   3.981300
     9  H    1.100825   2.200611   2.846382   4.296646   5.333207
    10  H    1.100923   2.199796   3.543855   4.786633   6.111830
    11  H    1.100825   2.200611   2.846382   4.296646   5.333207
    12  H    2.185965   1.104085   2.188573   2.816916   4.269593
    13  H    2.185965   1.104085   2.188573   2.816916   4.269593
    14  H    2.815461   2.189179   1.104105   2.189696   2.818637
    15  H    2.815461   2.189179   1.104105   2.189696   2.818637
    16  H    4.266537   2.818274   2.189373   1.104115   2.189516
    17  H    4.266537   2.818274   2.189373   1.104115   2.189516
    18  H    5.299327   4.271067   2.818340   2.189516   1.104115
    19  H    5.299327   4.271067   2.818340   2.189516   1.104115
    20  H    6.714598   5.302699   4.271274   2.818637   2.189696
    21  H    6.714598   5.302698   4.271274   2.818637   2.189696
    22  H    7.852335   6.716924   5.300748   4.269593   2.816916
    23  H    7.852335   6.716924   5.300749   4.269593   2.816916
    24  H    9.271764   7.888803   6.747275   5.333207   4.296646
    25  H    9.966316   8.694760   7.377720   6.111830   4.786633
    26  H    9.271764   7.888803   6.747275   5.333207   4.296646
                    6          7          8          9         10
     6  C    0.000000
     7  C    1.560808   0.000000
     8  C    2.589562   1.555977   0.000000
     9  H    6.747275   7.888803   9.271764   0.000000
    10  H    7.377720   8.694760   9.966315   1.784510   0.000000
    11  H    6.747275   7.888803   9.271764   1.783440   1.784510
    12  H    5.300749   6.716924   7.852335   2.541646   2.521825
    13  H    5.300748   6.716924   7.852334   3.103151   2.521825
    14  H    4.271274   5.302698   6.714598   2.625534   3.823424
    15  H    4.271274   5.302699   6.714598   3.172285   3.823424
    16  H    2.818340   4.271067   5.299327   4.821119   4.942143
    17  H    2.818340   4.271067   5.299327   4.480311   4.942143
    18  H    2.189373   2.818274   4.266537   5.219017   6.278424
    19  H    2.189373   2.818274   4.266537   5.514358   6.278424
    20  H    1.104105   2.189179   2.815461   7.093260   7.480056
    21  H    1.104105   2.189179   2.815461   6.866176   7.480056
    22  H    2.188573   1.104085   2.185965   8.010790   8.811082
    23  H    2.188573   1.104085   2.185965   7.810453   8.811082
    24  H    2.846382   2.200611   1.100825   9.558899  10.077208
    25  H    3.543855   2.199797   1.100923  10.077208  10.867228
    26  H    2.846382   2.200611   1.100825   9.391054  10.077208
                   11         12         13         14         15
    11  H    0.000000
    12  H    3.103151   0.000000
    13  H    2.541646   1.777230   0.000000
    14  H    3.172285   2.534829   3.095850   0.000000
    15  H    2.625534   3.095850   2.534829   1.777444   0.000000
    16  H    4.480311   3.142378   2.591442   3.096819   2.535931
    17  H    4.821119   2.591442   3.142377   2.535931   3.096819
    18  H    5.514358   4.457238   4.798534   2.593502   3.144137
    19  H    5.219017   4.798534   4.457238   3.144137   2.593502
    20  H    6.866176   5.481111   5.184945   4.800310   4.459111
    21  H    7.093260   5.184945   5.481111   4.459111   4.800310
    22  H    7.810453   7.063490   6.836253   5.481111   5.184945
    23  H    8.010790   6.836253   7.063490   5.184945   5.481111
    24  H    9.391054   8.010790   7.810453   7.093260   6.866176
    25  H   10.077208   8.811082   8.811082   7.480056   7.480056
    26  H    9.558899   7.810453   8.010790   6.866176   7.093260
                   16         17         18         19         20
    16  H    0.000000
    17  H    1.777464   0.000000
    18  H    3.096790   2.535889   0.000000
    19  H    2.535889   3.096790   1.777464   0.000000
    20  H    2.593503   3.144137   3.096819   2.535931   0.000000
    21  H    3.144137   2.593502   2.535931   3.096819   1.777444
    22  H    4.457238   4.798534   3.142377   2.591442   2.534829
    23  H    4.798534   4.457238   2.591442   3.142378   3.095850
    24  H    5.219017   5.514358   4.821119   4.480311   2.625534
    25  H    6.278424   6.278424   4.942143   4.942143   3.823424
    26  H    5.514358   5.219017   4.480311   4.821119   3.172285
                   21         22         23         24         25
    21  H    0.000000
    22  H    3.095850   0.000000
    23  H    2.534829   1.777230   0.000000
    24  H    3.172285   2.541645   3.103151   0.000000
    25  H    3.823424   2.521825   2.521825   1.784510   0.000000
    26  H    2.625534   3.103151   2.541646   1.783440   1.784510
                   26
    26  H    0.000000
 Stoichiometry    C8H18
 Framework group  C2H[SGH(C8H2),X(H16)]
 Deg. of freedom    21
 Full point group                 C2H     NOp   4
 Largest Abelian subgroup         C2H     NOp   4
 Largest concise Abelian subgroup C2H     NOp   4
                         Standard orientation:                         
 ---------------------------------------------------------------------
 Center     Atomic      Atomic             Coordinates (Angstroms)
 Number     Number       Type             X           Y           Z
 ---------------------------------------------------------------------
      1          6           0        0.173088    4.551441    0.000000
      2          6           0        0.859857    3.155227    0.000000
      3          6           0       -0.173088    1.985122    0.000000
      4          6           0        0.516520    0.584982    0.000000
      5          6           0       -0.516520   -0.584982    0.000000
      6          6           0        0.173088   -1.985122    0.000000
      7          6           0       -0.859857   -3.155227    0.000000
      8          6           0       -0.173088   -4.551441    0.000000
      9          1           0       -0.460875    4.672854   -0.891720
     10          1           0        0.926691    5.354008    0.000000
     11          1           0       -0.460875    4.672854    0.891720
     12          1           0        1.509142    3.066933   -0.888615
     13          1           0        1.509142    3.066933    0.888615
     14          1           0       -0.822409    2.072333   -0.888722
     15          1           0       -0.822409    2.072333    0.888722
     16          1           0        1.165916    0.498321    0.888732
     17          1           0        1.165916    0.498321   -0.888732
     18          1           0       -1.165916   -0.498321   -0.888732
     19          1           0       -1.165916   -0.498321    0.888732
     20          1           0        0.822409   -2.072333    0.888722
     21          1           0        0.822409   -2.072333   -0.888722
     22          1           0       -1.509142   -3.066933    0.888615
     23          1           0       -1.509142   -3.066933   -0.888615
     24          1           0        0.460875   -4.672854    0.891720
     25          1           0       -0.926691   -5.354008    0.000000
     26          1           0        0.460875   -4.672854   -0.891720
 ---------------------------------------------------------------------
 Rotational constants (GHZ):     10.3840329      0.4752755      0.4651466
 Standard basis: STO-3G (5D, 7F)
 There are    21 symmetry adapted cartesian basis functions of AG  symmetry.
 There are     8 symmetry adapted cartesian basis functions of BG  symmetry.
 There are     8 symmetry adapted cartesian basis functions of AU  symmetry.
 There are    21 symmetry adapted cartesian basis functions of BU  symmetry.
 There are    21 symmetry adapted basis functions of AG  symmetry.
 There are     8 symmetry adapted basis functions of BG  symmetry.
 There are     8 symmetry adapted basis functions of AU  symmetry.
 There are    21 symmetry adapted basis functions of BU  symmetry.
    58 basis functions,   174 primitive gaussians,    58 cartesian basis functions
    33 alpha electrons       33 beta electrons
       nuclear repulsion energy       369.1241151494 Hartrees.
 NAtoms=   26 NActive=   26 NUniq=    9 SFac= 4.00D+00 NAtFMM=   60 NAOKFM=F Big=F
 Integral buffers will be    131072 words long.
 Raffenetti 2 integral format.
 Two-electron integral symmetry is turned on.
 One-electron integrals computed using PRISM.
 NBasis=    58 RedAO= T EigKep=  1.70D-01  NBF=    21     8     8    21
 NBsUse=    58 1.00D-06 EigRej= -1.00D+00 NBFU=    21     8     8    21
 ExpMin= 1.69D-01 ExpMax= 7.16D+01 ExpMxC= 7.16D+01 IAcc=1 IRadAn=         1 AccDes= 0.00D+00
 Harris functional with IExCor=  402 and IRadAn=       1 diagonalized for initial guess.
 HarFok:  IExCor=  402 AccDes= 0.00D+00 IRadAn=         1 IDoV= 1 UseB2=F ITyADJ=14
 ICtDFT=  3500011 ScaDFX=  1.000000  1.000000  1.000000  1.000000
 FoFCou: FMM=F IPFlag=           0 FMFlag=      100000 FMFlg1=           0
         NFxFlg=           0 DoJE=T BraDBF=F KetDBF=T FulRan=T
         wScrn=  0.000000 ICntrl=     500 IOpCl=  0 I1Cent=   200000004 NGrid=           0
         NMat0=    1 NMatS0=      1 NMatT0=    0 NMatD0=    1 NMtDS0=    0 NMtDT0=    0
 Petite list used in FoFCou.
 Initial guess orbital symmetries:
       Occupied  (AG) (BU) (BU) (AG) (BU) (AG) (BU) (AG) (AG) (BU)
                 (AG) (BU) (AG) (BU) (BU) (AG) (AU) (BG) (BU) (AU)
                 (AG) (AG) (BG) (BU) (BU) (AU) (AG) (BU) (BG) (AG)
                 (AU) (BG) (AG)
       Virtual   (BU) (BU) (AG) (AG) (AU) (BU) (BG) (AU) (AG) (BU)
                 (BG) (BU) (AG) (AG) (AU) (BU) (BU) (AG) (AG) (BG)
                 (BU) (BU) (AG) (AU) (BG)
 The electronic state of the initial guess is 1-AG.
 Keep R1 ints in memory in symmetry-blocked form, NReq=2377744.
 Requested convergence on RMS density matrix=1.00D-08 within 128 cycles.
 Requested convergence on MAX density matrix=1.00D-06.
 Requested convergence on             energy=1.00D-06.
 No special actions if energy rises.
 Integral accuracy reduced to 1.0D-05 until final iterations.
 Initial convergence to 1.0D-05 achieved.  Increase integral accuracy.
 SCF Done:  E(RB3LYP) =  -311.974845062     A.U. after   10 cycles
            NFock= 10  Conv=0.59D-08     -V/T= 2.0183

 **********************************************************************

            Population analysis using the SCF density.

 **********************************************************************

 Orbital symmetries:
       Occupied  (BU) (AG) (BU) (AG) (BU) (AG) (BU) (AG) (AG) (BU)
                 (AG) (BU) (AG) (BU) (BU) (AG) (AU) (BG) (AU) (BU)
                 (AG) (AG) (BG) (BU) (AU) (AG) (BU) (BG) (BU) (AU)
                 (BG) (AG) (AG)
       Virtual   (BU) (AU) (BG) (AG) (BU) (AG) (BU) (AU) (AG) (BG)
                 (BU) (BU) (AG) (BU) (AU) (AG) (BU) (AG) (AG) (BG)
                 (BU) (BU) (AG) (AU) (BG)
 The electronic state is 1-AG.
 Alpha  occ. eigenvalues --  -10.00721 -10.00721 -10.00470 -10.00422 -10.00361
 Alpha  occ. eigenvalues --  -10.00304  -9.99967  -9.99967  -0.76096  -0.73915
 Alpha  occ. eigenvalues --   -0.70340  -0.65627  -0.60280  -0.55577  -0.53992
 Alpha  occ. eigenvalues --   -0.53645  -0.44310  -0.42311  -0.39237  -0.39167
 Alpha  occ. eigenvalues --   -0.37706  -0.36327  -0.35640  -0.34336  -0.32288
 Alpha  occ. eigenvalues --   -0.31181  -0.30481  -0.29879  -0.28914  -0.28658
 Alpha  occ. eigenvalues --   -0.28320  -0.27796  -0.24845
 Alpha virt. eigenvalues --    0.32018   0.36019   0.38265   0.38363   0.38387
 Alpha virt. eigenvalues --    0.39105   0.40993   0.41421   0.44077   0.44845
 Alpha virt. eigenvalues --    0.45106   0.47393   0.47590   0.48047   0.48112
 Alpha virt. eigenvalues --    0.49565   0.49677   0.49690   0.50286   0.51101
 Alpha virt. eigenvalues --    0.51251   0.52220   0.52312   0.53755   0.55737
          Condensed to atoms (all electrons):
               1          2          3          4          5          6
     1  C    4.785624   0.359424  -0.019938   0.000600  -0.000004   0.000000
     2  C    0.359424   4.776174   0.358331  -0.019063   0.000585  -0.000003
     3  C   -0.019938   0.358331   4.788027   0.358167  -0.018996   0.000585
     4  C    0.000600  -0.019063   0.358167   4.788106   0.358118  -0.018996
     5  C   -0.000004   0.000585  -0.018996   0.358118   4.788106   0.358167
     6  C    0.000000  -0.000003   0.000585  -0.018996   0.358167   4.788027
     7  C    0.000000   0.000000  -0.000003   0.000585  -0.019063   0.358331
     8  C    0.000000   0.000000   0.000000  -0.000004   0.000600  -0.019938
     9  H    0.379494  -0.019568  -0.001953   0.000006   0.000000   0.000000
    10  H    0.379547  -0.018571   0.001146  -0.000013   0.000000   0.000000
    11  H    0.379494  -0.019568  -0.001953   0.000006   0.000000   0.000000
    12  H   -0.021190   0.378132  -0.021338  -0.001943   0.000004   0.000000
    13  H   -0.021190   0.378132  -0.021338  -0.001943   0.000004   0.000000
    14  H   -0.001919  -0.021235   0.377531  -0.021209  -0.001944   0.000005
    15  H   -0.001919  -0.021235   0.377531  -0.021209  -0.001944   0.000005
    16  H    0.000005  -0.001948  -0.021229   0.377511  -0.021219  -0.001946
    17  H    0.000005  -0.001948  -0.021229   0.377511  -0.021219  -0.001946
    18  H    0.000000   0.000005  -0.001946  -0.021219   0.377511  -0.021229
    19  H    0.000000   0.000005  -0.001946  -0.021219   0.377511  -0.021229
    20  H    0.000000   0.000000   0.000005  -0.001944  -0.021209   0.377531
    21  H    0.000000   0.000000   0.000005  -0.001944  -0.021209   0.377531
    22  H    0.000000   0.000000   0.000000   0.000004  -0.001943  -0.021338
    23  H    0.000000   0.000000   0.000000   0.000004  -0.001943  -0.021338
    24  H    0.000000   0.000000   0.000000   0.000000   0.000006  -0.001953
    25  H    0.000000   0.000000   0.000000   0.000000  -0.000013   0.001146
    26  H    0.000000   0.000000   0.000000   0.000000   0.000006  -0.001953
               7          8          9         10         11         12
     1  C    0.000000   0.000000   0.379494   0.379547   0.379494  -0.021190
     2  C    0.000000   0.000000  -0.019568  -0.018571  -0.019568   0.378132
     3  C   -0.000003   0.000000  -0.001953   0.001146  -0.001953  -0.021338
     4  C    0.000585  -0.000004   0.000006  -0.000013   0.000006  -0.001943
     5  C   -0.019063   0.000600   0.000000   0.000000   0.000000   0.000004
     6  C    0.358331  -0.019938   0.000000   0.000000   0.000000   0.000000
     7  C    4.776174   0.359424   0.000000   0.000000   0.000000   0.000000
     8  C    0.359424   4.785624   0.000000   0.000000   0.000000   0.000000
     9  H    0.000000   0.000000   0.613496  -0.020908  -0.021156  -0.002171
    10  H    0.000000   0.000000  -0.020908   0.612446  -0.020908  -0.002053
    11  H    0.000000   0.000000  -0.021156  -0.020908   0.613496   0.001807
    12  H    0.000000   0.000000  -0.002171  -0.002053   0.001807   0.625064
    13  H    0.000000   0.000000   0.001807  -0.002053  -0.002171  -0.022909
    14  H    0.000000   0.000000   0.000534   0.000006  -0.000012  -0.002204
    15  H    0.000000   0.000000  -0.000012   0.000006   0.000534   0.001817
    16  H    0.000005   0.000000   0.000000   0.000000   0.000002  -0.000002
    17  H    0.000005   0.000000   0.000002   0.000000   0.000000   0.000541
    18  H   -0.001948   0.000005   0.000000   0.000000   0.000000   0.000002
    19  H   -0.001948   0.000005   0.000000   0.000000   0.000000   0.000000
    20  H   -0.021235  -0.001919   0.000000   0.000000   0.000000   0.000000
    21  H   -0.021235  -0.001919   0.000000   0.000000   0.000000   0.000000
    22  H    0.378132  -0.021190   0.000000   0.000000   0.000000   0.000000
    23  H    0.378132  -0.021190   0.000000   0.000000   0.000000   0.000000
    24  H   -0.019568   0.379494   0.000000   0.000000   0.000000   0.000000
    25  H   -0.018571   0.379547   0.000000   0.000000   0.000000   0.000000
    26  H   -0.019568   0.379494   0.000000   0.000000   0.000000   0.000000
              13         14         15         16         17         18
     1  C   -0.021190  -0.001919  -0.001919   0.000005   0.000005   0.000000
     2  C    0.378132  -0.021235  -0.021235  -0.001948  -0.001948   0.000005
     3  C   -0.021338   0.377531   0.377531  -0.021229  -0.021229  -0.001946
     4  C   -0.001943  -0.021209  -0.021209   0.377511   0.377511  -0.021219
     5  C    0.000004  -0.001944  -0.001944  -0.021219  -0.021219   0.377511
     6  C    0.000000   0.000005   0.000005  -0.001946  -0.001946  -0.021229
     7  C    0.000000   0.000000   0.000000   0.000005   0.000005  -0.001948
     8  C    0.000000   0.000000   0.000000   0.000000   0.000000   0.000005
     9  H    0.001807   0.000534  -0.000012   0.000000   0.000002   0.000000
    10  H   -0.002053   0.000006   0.000006   0.000000   0.000000   0.000000
    11  H   -0.002171  -0.000012   0.000534   0.000002   0.000000   0.000000
    12  H   -0.022909  -0.002204   0.001817  -0.000002   0.000541   0.000002
    13  H    0.625064   0.001817  -0.002204   0.000541  -0.000002   0.000000
    14  H    0.001817   0.626447  -0.022996   0.001812  -0.002194   0.000533
    15  H   -0.002204  -0.022996   0.626447  -0.002194   0.001812  -0.000001
    16  H    0.000541   0.001812  -0.002194   0.626578  -0.023011   0.001813
    17  H   -0.000002  -0.002194   0.001812  -0.023011   0.626578  -0.002195
    18  H    0.000000   0.000533  -0.000001   0.001813  -0.002195   0.626578
    19  H    0.000002  -0.000001   0.000533  -0.002195   0.001813  -0.023011
    20  H    0.000000   0.000000   0.000002   0.000533  -0.000001   0.001812
    21  H    0.000000   0.000002   0.000000  -0.000001   0.000533  -0.002194
    22  H    0.000000   0.000000   0.000000   0.000002   0.000000  -0.000002
    23  H    0.000000   0.000000   0.000000   0.000000   0.000002   0.000541
    24  H    0.000000   0.000000   0.000000   0.000000   0.000000   0.000000
    25  H    0.000000   0.000000   0.000000   0.000000   0.000000   0.000000
    26  H    0.000000   0.000000   0.000000   0.000000   0.000000   0.000002
              19         20         21         22         23         24
     1  C    0.000000   0.000000   0.000000   0.000000   0.000000   0.000000
     2  C    0.000005   0.000000   0.000000   0.000000   0.000000   0.000000
     3  C   -0.001946   0.000005   0.000005   0.000000   0.000000   0.000000
     4  C   -0.021219  -0.001944  -0.001944   0.000004   0.000004   0.000000
     5  C    0.377511  -0.021209  -0.021209  -0.001943  -0.001943   0.000006
     6  C   -0.021229   0.377531   0.377531  -0.021338  -0.021338  -0.001953
     7  C   -0.001948  -0.021235  -0.021235   0.378132   0.378132  -0.019568
     8  C    0.000005  -0.001919  -0.001919  -0.021190  -0.021190   0.379494
     9  H    0.000000   0.000000   0.000000   0.000000   0.000000   0.000000
    10  H    0.000000   0.000000   0.000000   0.000000   0.000000   0.000000
    11  H    0.000000   0.000000   0.000000   0.000000   0.000000   0.000000
    12  H    0.000000   0.000000   0.000000   0.000000   0.000000   0.000000
    13  H    0.000002   0.000000   0.000000   0.000000   0.000000   0.000000
    14  H   -0.000001   0.000000   0.000002   0.000000   0.000000   0.000000
    15  H    0.000533   0.000002   0.000000   0.000000   0.000000   0.000000
    16  H   -0.002195   0.000533  -0.000001   0.000002   0.000000   0.000000
    17  H    0.001813  -0.000001   0.000533   0.000000   0.000002   0.000000
    18  H   -0.023011   0.001812  -0.002194  -0.000002   0.000541   0.000000
    19  H    0.626578  -0.002194   0.001812   0.000541  -0.000002   0.000002
    20  H   -0.002194   0.626447  -0.022996  -0.002204   0.001817   0.000534
    21  H    0.001812  -0.022996   0.626447   0.001817  -0.002204  -0.000012
    22  H    0.000541  -0.002204   0.001817   0.625064  -0.022909  -0.002171
    23  H   -0.000002   0.001817  -0.002204  -0.022909   0.625064   0.001807
    24  H    0.000002   0.000534  -0.000012  -0.002171   0.001807   0.613496
    25  H    0.000000   0.000006   0.000006  -0.002053  -0.002053  -0.020908
    26  H    0.000000  -0.000012   0.000534   0.001807  -0.002171  -0.021156
              25         26
     1  C    0.000000   0.000000
     2  C    0.000000   0.000000
     3  C    0.000000   0.000000
     4  C    0.000000   0.000000
     5  C   -0.000013   0.000006
     6  C    0.001146  -0.001953
     7  C   -0.018571  -0.019568
     8  C    0.379547   0.379494
     9  H    0.000000   0.000000
    10  H    0.000000   0.000000
    11  H    0.000000   0.000000
    12  H    0.000000   0.000000
    13  H    0.000000   0.000000
    14  H    0.000000   0.000000
    15  H    0.000000   0.000000
    16  H    0.000000   0.000000
    17  H    0.000000   0.000000
    18  H    0.000000   0.000002
    19  H    0.000000   0.000000
    20  H    0.000006  -0.000012
    21  H    0.000006   0.000534
    22  H   -0.002053   0.001807
    23  H   -0.002053  -0.002171
    24  H   -0.020908  -0.021156
    25  H    0.612446  -0.020908
    26  H   -0.020908   0.613496
 Mulliken charges:
               1
     1  C   -0.218032
     2  C   -0.127649
     3  C   -0.129457
     4  C   -0.129909
     5  C   -0.129909
     6  C   -0.129457
     7  C   -0.127649
     8  C   -0.218032
     9  H    0.070429
    10  H    0.071355
    11  H    0.070429
    12  H    0.066444
    13  H    0.066444
    14  H    0.065028
    15  H    0.065028
    16  H    0.064945
    17  H    0.064945
    18  H    0.064945
    19  H    0.064945
    20  H    0.065028
    21  H    0.065028
    22  H    0.066444
    23  H    0.066444
    24  H    0.070429
    25  H    0.071355
    26  H    0.070429
 Sum of Mulliken charges =   0.00000
 Mulliken charges with hydrogens summed into heavy atoms:
               1
     1  C   -0.005819
     2  C    0.005239
     3  C    0.000599
     4  C   -0.000018
     5  C   -0.000018
     6  C    0.000599
     7  C    0.005239
     8  C   -0.005819
 Electronic spatial extent (au):  <R**2>=           2489.4968
 Charge=              0.0000 electrons
 Dipole moment (field-independent basis, Debye):
    X=              0.0000    Y=              0.0000    Z=              0.0000  Tot=              0.0000
 Quadrupole moment (field-independent basis, Debye-Ang):
   XX=            -51.0751   YY=            -51.9946   ZZ=            -50.3570
   XY=              0.1231   XZ=              0.0000   YZ=              0.0000
 Traceless Quadrupole moment (field-independent basis, Debye-Ang):
   XX=              0.0672   YY=             -0.8524   ZZ=              0.7852
   XY=              0.1231   XZ=              0.0000   YZ=              0.0000
 Octapole moment (field-independent basis, Debye-Ang**2):
  XXX=              0.0000  YYY=              0.0000  ZZZ=              0.0000  XYY=              0.0000
  XXY=              0.0000  XXZ=              0.0000  XZZ=              0.0000  YZZ=              0.0000
  YYZ=              0.0000  XYZ=              0.0000
 Hexadecapole moment (field-independent basis, Debye-Ang**3):
 XXXX=           -194.2902 YYYY=          -2963.6484 ZZZZ=            -95.9965 XXXY=           -130.9303
 XXXZ=              0.0000 YYYX=           -116.5581 YYYZ=              0.0000 ZZZX=              0.0000
 ZZZY=              0.0000 XXYY=           -515.2574 XXZZ=            -43.1207 YYZZ=           -499.5343
 XXYZ=              0.0000 YYXZ=              0.0000 ZZXY=            -47.5942
 N-N= 3.691241151494D+02 E-N=-1.457773107616D+03  KE= 3.063667839999D+02
 Symmetry AG   KE= 1.468371627112D+02
 Symmetry BG   KE= 7.977496648820D+00
 Symmetry AU   KE= 7.720572426296D+00
 Symmetry BU   KE= 1.438315522135D+02
 Calling FoFJK, ICntrl=      2127 FMM=F ISym2X=1 I1Cent= 0 IOpClX= 0 NMat=1 NMatS=1 NMatT=0.
 ***** Axes restored to original set *****
 -------------------------------------------------------------------
 Center     Atomic                   Forces (Hartrees/Bohr)
 Number     Number              X              Y              Z
 -------------------------------------------------------------------
      1        6           0.000027595   -0.000034374    0.000027441
      2        6           0.000097085    0.000102345    0.000047281
      3        6          -0.000054151   -0.000123411   -0.000011739
      4        6           0.000059434    0.000127566    0.000014624
      5        6          -0.000059434   -0.000127566   -0.000014624
      6        6           0.000054151    0.000123411    0.000011739
      7        6          -0.000097085   -0.000102345   -0.000047281
      8        6          -0.000027595    0.000034374   -0.000027441
      9        1          -0.000019654    0.000008058   -0.000019951
     10        1           0.000005638    0.000008544    0.000002172
     11        1          -0.000023357    0.000009194   -0.000014805
     12        1          -0.000035645    0.000018114   -0.000010125
     13        1          -0.000017711    0.000012615   -0.000035049
     14        1          -0.000007026    0.000002102    0.000010631
     15        1           0.000007813   -0.000002447   -0.000009989
     16        1           0.000004996    0.000000244   -0.000014896
     17        1          -0.000011943    0.000005438    0.000008644
     18        1          -0.000004996   -0.000000244    0.000014896
     19        1           0.000011943   -0.000005438   -0.000008644
     20        1           0.000007026   -0.000002102   -0.000010631
     21        1          -0.000007813    0.000002447    0.000009989
     22        1           0.000035645   -0.000018114    0.000010125
     23        1           0.000017711   -0.000012615    0.000035049
     24        1           0.000019654   -0.000008058    0.000019951
     25        1          -0.000005638   -0.000008544   -0.000002172
     26        1           0.000023357   -0.000009194    0.000014805
 -------------------------------------------------------------------
 Cartesian Forces:  Max     0.000127566 RMS     0.000042120

 GradGradGradGradGradGradGradGradGradGradGradGradGradGradGradGradGradGrad
 Berny optimization.
 FormGI is forming the generalized inverse of G from B-inverse, IUseBI=4.
 GSVD:  received Info=                   1 from GESDD.
 Internal  Forces:  Max     0.000115648 RMS     0.000026593
 Search for a local minimum.
 Step number   1 out of a maximum of  146
 All quantities printed in internal units (Hartrees-Bohrs-Radians)
 Mixed Optimization -- En-DIIS/RFO-DIIS
 Second derivative matrix not updated -- first step.
 ITU=  0
     Eigenvalues ---    0.00230   0.00230   0.00230   0.00230   0.00230
     Eigenvalues ---    0.00230   0.00230   0.03473   0.03473   0.03477
     Eigenvalues ---    0.03477   0.03477   0.03477   0.04760   0.04760
     Eigenvalues ---    0.04761   0.04761   0.04761   0.04761   0.05494
     Eigenvalues ---    0.05494   0.05497   0.05497   0.08194   0.08194
     Eigenvalues ---    0.08195   0.08195   0.08200   0.08200   0.12116
     Eigenvalues ---    0.12116   0.12117   0.12117   0.12121   0.12121
     Eigenvalues ---    0.16000   0.16000   0.16000   0.16000   0.16000
     Eigenvalues ---    0.16000   0.21925   0.21925   0.21925   0.21925
     Eigenvalues ---    0.21925   0.21925   0.26752   0.26752   0.26756
     Eigenvalues ---    0.26757   0.26757   0.27149   0.27149   0.33231
     Eigenvalues ---    0.33231   0.33231   0.33231   0.33232   0.33232
     Eigenvalues ---    0.33232   0.33232   0.33234   0.33234   0.33234
     Eigenvalues ---    0.33234   0.33580   0.33580   0.33591   0.33591
     Eigenvalues ---    0.33591   0.33591
 RFO step:  Lambda=-5.63211008D-07 EMin= 2.30000000D-03
 Linear search not attempted -- first point.
 Iteration  1 RMS(Cart)=  0.00054252 RMS(Int)=  0.00000009
 Iteration  2 RMS(Cart)=  0.00000012 RMS(Int)=  0.00000004
 ClnCor:  largest displacement from symmetrization is 2.00D-08 for atom    25.
 Variable       Old X    -DE/DX   Delta X   Delta X   Delta X     New X
                                 (Linear)    (Quad)   (Total)
    R1        2.94037  -0.00002   0.00000  -0.00007  -0.00007   2.94030
    R2        2.08026  -0.00001   0.00000  -0.00003  -0.00003   2.08023
    R3        2.08044   0.00000   0.00000   0.00000   0.00000   2.08044
    R4        2.08026  -0.00001   0.00000  -0.00003  -0.00003   2.08023
    R5        2.94950  -0.00001   0.00000  -0.00003  -0.00003   2.94947
    R6        2.08642   0.00002   0.00000   0.00005   0.00005   2.08647
    R7        2.08642   0.00002   0.00000   0.00005   0.00005   2.08647
    R8        2.94940  -0.00002   0.00000  -0.00008  -0.00008   2.94932
    R9        2.08646   0.00001   0.00000   0.00002   0.00002   2.08648
   R10        2.08646   0.00001   0.00000   0.00002   0.00002   2.08648
   R11        2.94942   0.00000   0.00000   0.00001   0.00001   2.94943
   R12        2.08647   0.00001   0.00000   0.00004   0.00004   2.08651
   R13        2.08647   0.00001   0.00000   0.00004   0.00004   2.08651
   R14        2.94940  -0.00002   0.00000  -0.00008  -0.00008   2.94932
   R15        2.08647   0.00001   0.00000   0.00004   0.00004   2.08651
   R16        2.08647   0.00001   0.00000   0.00004   0.00004   2.08651
   R17        2.94950  -0.00001   0.00000  -0.00003  -0.00003   2.94947
   R18        2.08646   0.00001   0.00000   0.00002   0.00002   2.08648
   R19        2.08646   0.00001   0.00000   0.00002   0.00002   2.08648
   R20        2.94037  -0.00002   0.00000  -0.00007  -0.00007   2.94030
   R21        2.08642   0.00002   0.00000   0.00005   0.00005   2.08647
   R22        2.08642   0.00002   0.00000   0.00005   0.00005   2.08647
   R23        2.08026  -0.00001   0.00000  -0.00003  -0.00003   2.08023
   R24        2.08044   0.00000   0.00000   0.00000   0.00000   2.08044
   R25        2.08026  -0.00001   0.00000  -0.00003  -0.00003   2.08023
    A1        1.93174   0.00003   0.00000   0.00025   0.00025   1.93199
    A2        1.93052  -0.00002   0.00000  -0.00023  -0.00023   1.93029
    A3        1.93174   0.00003   0.00000   0.00025   0.00025   1.93199
    A4        1.89000  -0.00002   0.00000  -0.00021  -0.00021   1.88979
    A5        1.88846  -0.00001   0.00000   0.00013   0.00013   1.88860
    A6        1.89000  -0.00002   0.00000  -0.00021  -0.00021   1.88979
    A7        1.96124   0.00012   0.00000   0.00058   0.00058   1.96182
    A8        1.90850  -0.00006   0.00000  -0.00039  -0.00039   1.90811
    A9        1.90850  -0.00006   0.00000  -0.00039  -0.00039   1.90811
   A10        1.90629  -0.00001   0.00000   0.00013   0.00013   1.90642
   A11        1.90629  -0.00001   0.00000   0.00013   0.00013   1.90642
   A12        1.87082   0.00002   0.00000  -0.00009  -0.00009   1.87073
   A13        1.96072   0.00008   0.00000   0.00036   0.00036   1.96108
   A14        1.90709  -0.00003   0.00000  -0.00012  -0.00012   1.90697
   A15        1.90709  -0.00003   0.00000  -0.00012  -0.00012   1.90697
   A16        1.90785  -0.00002   0.00000  -0.00009  -0.00009   1.90775
   A17        1.90785  -0.00002   0.00000  -0.00009  -0.00009   1.90775
   A18        1.87110   0.00002   0.00000   0.00004   0.00004   1.87114
   A19        1.96062   0.00008   0.00000   0.00040   0.00040   1.96101
   A20        1.90740  -0.00003   0.00000  -0.00013  -0.00013   1.90727
   A21        1.90740  -0.00003   0.00000  -0.00013  -0.00013   1.90727
   A22        1.90758  -0.00002   0.00000  -0.00008  -0.00008   1.90750
   A23        1.90758  -0.00002   0.00000  -0.00008  -0.00008   1.90750
   A24        1.87111   0.00002   0.00000   0.00001   0.00001   1.87111
   A25        1.96062   0.00008   0.00000   0.00040   0.00040   1.96101
   A26        1.90758  -0.00002   0.00000  -0.00008  -0.00008   1.90750
   A27        1.90758  -0.00002   0.00000  -0.00008  -0.00008   1.90750
   A28        1.90740  -0.00003   0.00000  -0.00013  -0.00013   1.90727
   A29        1.90740  -0.00003   0.00000  -0.00013  -0.00013   1.90727
   A30        1.87111   0.00002   0.00000   0.00001   0.00001   1.87111
   A31        1.96072   0.00008   0.00000   0.00036   0.00036   1.96108
   A32        1.90785  -0.00002   0.00000  -0.00009  -0.00009   1.90775
   A33        1.90785  -0.00002   0.00000  -0.00009  -0.00009   1.90775
   A34        1.90709  -0.00003   0.00000  -0.00012  -0.00012   1.90697
   A35        1.90709  -0.00003   0.00000  -0.00012  -0.00012   1.90697
   A36        1.87110   0.00002   0.00000   0.00004   0.00004   1.87114
   A37        1.96124   0.00012   0.00000   0.00058   0.00058   1.96182
   A38        1.90629  -0.00001   0.00000   0.00013   0.00013   1.90642
   A39        1.90629  -0.00001   0.00000   0.00013   0.00013   1.90642
   A40        1.90850  -0.00006   0.00000  -0.00039  -0.00039   1.90811
   A41        1.90850  -0.00006   0.00000  -0.00039  -0.00039   1.90811
   A42        1.87082   0.00002   0.00000  -0.00009  -0.00009   1.87073
   A43        1.93174   0.00003   0.00000   0.00025   0.00025   1.93199
   A44        1.93052  -0.00002   0.00000  -0.00023  -0.00023   1.93029
   A45        1.93174   0.00003   0.00000   0.00025   0.00025   1.93199
   A46        1.89000  -0.00002   0.00000  -0.00021  -0.00021   1.88979
   A47        1.88846  -0.00001   0.00000   0.00013   0.00013   1.88860
   A48        1.89000  -0.00002   0.00000  -0.00021  -0.00021   1.88979
    D1       -1.04682  -0.00001   0.00000  -0.00025  -0.00025  -1.04707
    D2        1.07302   0.00001   0.00000   0.00003   0.00003   1.07305
    D3        3.11652  -0.00003   0.00000  -0.00053  -0.00053   3.11600
    D4        3.14159   0.00000   0.00000   0.00000   0.00000   3.14159
    D5       -1.02175   0.00002   0.00000   0.00028   0.00028  -1.02147
    D6        1.02175  -0.00002   0.00000  -0.00028  -0.00028   1.02147
    D7        1.04682   0.00001   0.00000   0.00025   0.00025   1.04707
    D8       -3.11652   0.00003   0.00000   0.00053   0.00053  -3.11600
    D9       -1.07302  -0.00001   0.00000  -0.00003  -0.00003  -1.07305
   D10        3.14159   0.00000   0.00000   0.00000   0.00000  -3.14159
   D11        1.02111   0.00000   0.00000  -0.00004  -0.00004   1.02107
   D12       -1.02111   0.00000   0.00000   0.00004   0.00004  -1.02107
   D13        1.02049   0.00000   0.00000   0.00002   0.00002   1.02051
   D14       -1.09999   0.00000   0.00000  -0.00002  -0.00002  -1.10001
   D15        3.14097   0.00001   0.00000   0.00006   0.00006   3.14104
   D16       -1.02049   0.00000   0.00000  -0.00002  -0.00002  -1.02051
   D17       -3.14097  -0.00001   0.00000  -0.00006  -0.00006  -3.14104
   D18        1.09999   0.00000   0.00000   0.00002   0.00002   1.10001
   D19        3.14159   0.00000   0.00000   0.00000   0.00000   3.14159
   D20        1.02129  -0.00001   0.00000  -0.00007  -0.00007   1.02122
   D21       -1.02129   0.00001   0.00000   0.00007   0.00007  -1.02122
   D22       -1.02154   0.00000   0.00000   0.00003   0.00003  -1.02151
   D23        3.14134   0.00000   0.00000  -0.00004  -0.00004   3.14130
   D24        1.09875   0.00001   0.00000   0.00010   0.00010   1.09885
   D25        1.02154   0.00000   0.00000  -0.00003  -0.00003   1.02151
   D26       -1.09875  -0.00001   0.00000  -0.00010  -0.00010  -1.09885
   D27       -3.14134   0.00000   0.00000   0.00004   0.00004  -3.14130
   D28        3.14159   0.00000   0.00000   0.00000   0.00000   3.14159
   D29        1.02140   0.00000   0.00000  -0.00004  -0.00004   1.02136
   D30       -1.02140   0.00000   0.00000   0.00004   0.00004  -1.02136
   D31       -1.02140   0.00000   0.00000   0.00004   0.00004  -1.02136
   D32        3.14159   0.00000   0.00000   0.00000   0.00000   3.14159
   D33        1.09880   0.00001   0.00000   0.00008   0.00008   1.09888
   D34        1.02140   0.00000   0.00000  -0.00004  -0.00004   1.02136
   D35       -1.09880  -0.00001   0.00000  -0.00008  -0.00008  -1.09888
   D36       -3.14159   0.00000   0.00000   0.00000   0.00000  -3.14159
   D37        3.14159   0.00000   0.00000   0.00000   0.00000   3.14159
   D38        1.02154   0.00000   0.00000  -0.00003  -0.00003   1.02151
   D39       -1.02154   0.00000   0.00000   0.00003   0.00003  -1.02151
   D40       -1.02129   0.00001   0.00000   0.00007   0.00007  -1.02122
   D41       -3.14134   0.00000   0.00000   0.00004   0.00004  -3.14130
   D42        1.09875   0.00001   0.00000   0.00010   0.00010   1.09885
   D43        1.02129  -0.00001   0.00000  -0.00007  -0.00007   1.02122
   D44       -1.09875  -0.00001   0.00000  -0.00010  -0.00010  -1.09885
   D45        3.14134   0.00000   0.00000  -0.00004  -0.00004   3.14130
   D46        3.14159   0.00000   0.00000   0.00000   0.00000   3.14159
   D47       -1.02049   0.00000   0.00000  -0.00002  -0.00002  -1.02051
   D48        1.02049   0.00000   0.00000   0.00002   0.00002   1.02051
   D49       -1.02111   0.00000   0.00000   0.00004   0.00004  -1.02107
   D50        1.09999   0.00000   0.00000   0.00002   0.00002   1.10001
   D51        3.14097   0.00001   0.00000   0.00006   0.00006   3.14104
   D52        1.02111   0.00000   0.00000  -0.00004  -0.00004   1.02107
   D53       -3.14097  -0.00001   0.00000  -0.00006  -0.00006  -3.14104
   D54       -1.09999   0.00000   0.00000  -0.00002  -0.00002  -1.10001
   D55        1.04682   0.00001   0.00000   0.00025   0.00025   1.04707
   D56       -3.14159   0.00000   0.00000   0.00000   0.00000   3.14159
   D57       -1.04682  -0.00001   0.00000  -0.00025  -0.00025  -1.04707
   D58       -1.07302  -0.00001   0.00000  -0.00003  -0.00003  -1.07305
   D59        1.02175  -0.00002   0.00000  -0.00028  -0.00028   1.02147
   D60        3.11652  -0.00003   0.00000  -0.00053  -0.00053   3.11600
   D61       -3.11652   0.00003   0.00000   0.00053   0.00053  -3.11600
   D62       -1.02175   0.00002   0.00000   0.00028   0.00028  -1.02147
   D63        1.07302   0.00001   0.00000   0.00003   0.00003   1.07305
         Item               Value     Threshold  Converged?
 Maximum Force            0.000116     0.000015     NO 
 RMS     Force            0.000027     0.000010     NO 
 Maximum Displacement     0.001625     0.000060     NO 
 RMS     Displacement     0.000542     0.000040     NO 
 Predicted change in Energy=-2.815757D-07
 GradGradGradGradGradGradGradGradGradGradGradGradGradGradGradGradGradGrad

                          Input orientation:                          
 ---------------------------------------------------------------------
 Center     Atomic      Atomic             Coordinates (Angstroms)
 Number     Number       Type             X           Y           Z
 ---------------------------------------------------------------------
      1          6           0        0.376878   -1.427718   -2.261875
      2          6           0        0.813334   -2.788959   -1.647482
      3          6           0        2.089295   -2.658400   -0.758124
      4          6           0        2.526203   -4.024337   -0.142370
      5          6           0        3.802148   -3.893672    0.746952
      6          6           0        4.239055   -5.259609    1.362706
      7          6           0        5.515017   -5.129050    2.252064
      8          6           0        5.951473   -6.490291    2.866457
      9          1           0        0.150896   -0.697844   -1.469413
     10          1           0       -0.523853   -1.553802   -2.882210
     11          1           0        1.176294   -1.012234   -2.894400
     12          1           0       -0.013172   -3.197417   -1.039932
     13          1           0        1.008615   -3.510700   -2.459900
     14          1           0        1.894384   -1.937171    0.054843
     15          1           0        2.916328   -2.250502   -1.365344
     16          1           0        2.720704   -4.745293   -0.955699
     17          1           0        1.698754   -4.431960    0.464495
     18          1           0        3.607647   -3.172716    1.560281
     19          1           0        4.629596   -3.486049    0.140087
     20          1           0        4.433967   -5.980838    0.549739
     21          1           0        3.412023   -5.667507    1.969925
     22          1           0        6.341523   -4.720593    1.644514
     23          1           0        5.319736   -4.407310    3.064482
     24          1           0        6.177455   -7.220166    2.073995
     25          1           0        6.852203   -6.364207    3.486791
     26          1           0        5.152056   -6.905775    3.498981
 ---------------------------------------------------------------------
                    Distance matrix (angstroms):
                    1          2          3          4          5
     1  C    0.000000
     2  C    1.555940   0.000000
     3  C    2.590023   1.560795   0.000000
     4  C    3.981750   2.593345   1.560713   0.000000
     5  C    5.183285   3.985814   2.593263   1.560770   0.000000
     6  C    6.537384   5.186609   3.985684   2.593263   1.560713
     7  C    7.776630   6.541277   5.186609   3.985814   2.593345
     8  C    9.110738   7.776630   6.537384   5.183285   3.981750
     9  H    1.100809   2.200749   2.847298   4.297521   5.334532
    10  H    1.100921   2.199598   3.544068   4.786763   6.112290
    11  H    1.100809   2.200749   2.847298   4.297521   5.334532
    12  H    2.185662   1.104114   2.188681   2.817418   4.270175
    13  H    2.185662   1.104114   2.188681   2.817418   4.270175
    14  H    2.815946   2.189091   1.104119   2.189601   2.818950
    15  H    2.815946   2.189091   1.104119   2.189601   2.818950
    16  H    4.266840   2.818487   2.189255   1.104134   2.189475
    17  H    4.266840   2.818487   2.189255   1.104134   2.189475
    18  H    5.300166   4.271440   2.818673   2.189475   1.104134
    19  H    5.300166   4.271440   2.818673   2.189475   1.104134
    20  H    6.715359   5.303287   4.271602   2.818950   2.189601
    21  H    6.715359   5.303287   4.271602   2.818950   2.189601
    22  H    7.853655   6.717836   5.301580   4.270175   2.817418
    23  H    7.853655   6.717836   5.301580   4.270175   2.817418
    24  H    9.273560   7.890423   6.748604   5.334532   4.297521
    25  H    9.967243   8.695465   7.378185   6.112290   4.786763
    26  H    9.273560   7.890423   6.748604   5.334532   4.297521
                    6          7          8          9         10
     6  C    0.000000
     7  C    1.560795   0.000000
     8  C    2.590023   1.555940   0.000000
     9  H    6.748604   7.890423   9.273560   0.000000
    10  H    7.378185   8.695465   9.967243   1.784361   0.000000
    11  H    6.748604   7.890423   9.273560   1.783500   1.784361
    12  H    5.301580   6.717836   7.853655   2.541503   2.521161
    13  H    5.301580   6.717836   7.853655   3.103048   2.521161
    14  H    4.271602   5.303287   6.715359   2.626602   3.823757
    15  H    4.271602   5.303287   6.715359   3.173199   3.823757
    16  H    2.818673   4.271440   5.300166   4.821791   4.942085
    17  H    2.818673   4.271440   5.300166   4.481015   4.942085
    18  H    2.189255   2.818487   4.266840   5.220456   6.279004
    19  H    2.189255   2.818487   4.266840   5.515736   6.279004
    20  H    1.104119   2.189091   2.815946   7.094484   7.480434
    21  H    1.104119   2.189091   2.815946   6.867427   7.480434
    22  H    2.188681   1.104114   2.185662   8.012672   8.812104
    23  H    2.188681   1.104114   2.185662   7.812378   8.812104
    24  H    2.847298   2.200749   1.100809   9.561163  10.078649
    25  H    3.544068   2.199598   1.100921  10.078649  10.867860
    26  H    2.847298   2.200749   1.100809   9.393347  10.078649
                   11         12         13         14         15
    11  H    0.000000
    12  H    3.103048   0.000000
    13  H    2.541503   1.777218   0.000000
    14  H    3.173199   2.534861   3.095886   0.000000
    15  H    2.626602   3.095886   2.534861   1.777491   0.000000
    16  H    4.481015   3.142785   2.591928   3.096700   2.535756
    17  H    4.821791   2.591928   3.142785   2.535756   3.096700
    18  H    5.515736   4.457808   4.799068   2.593875   3.144468
    19  H    5.220456   4.799068   4.457808   3.144468   2.593875
    20  H    6.867427   5.481929   5.185803   4.800589   4.459392
    21  H    7.094484   5.185803   5.481929   4.459392   4.800589
    22  H    7.812378   7.064593   6.837395   5.481929   5.185803
    23  H    8.012672   6.837395   7.064593   5.185803   5.481929
    24  H    9.393347   8.012672   7.812378   7.094484   6.867427
    25  H   10.078649   8.812104   8.812104   7.480434   7.480434
    26  H    9.561163   7.812378   8.012672   6.867427   7.094484
                   16         17         18         19         20
    16  H    0.000000
    17  H    1.777501   0.000000
    18  H    3.096744   2.535806   0.000000
    19  H    2.535806   3.096744   1.777501   0.000000
    20  H    2.593875   3.144468   3.096700   2.535756   0.000000
    21  H    3.144468   2.593875   2.535756   3.096700   1.777491
    22  H    4.457808   4.799068   3.142785   2.591928   2.534861
    23  H    4.799068   4.457808   2.591928   3.142785   3.095886
    24  H    5.220456   5.515736   4.821791   4.481015   2.626602
    25  H    6.279004   6.279004   4.942085   4.942085   3.823757
    26  H    5.515736   5.220456   4.481015   4.821791   3.173199
                   21         22         23         24         25
    21  H    0.000000
    22  H    3.095886   0.000000
    23  H    2.534861   1.777218   0.000000
    24  H    3.173199   2.541503   3.103048   0.000000
    25  H    3.823757   2.521161   2.521161   1.784361   0.000000
    26  H    2.626602   3.103048   2.541503   1.783500   1.784361
                   26
    26  H    0.000000
 Stoichiometry    C8H18
 Framework group  C2H[SGH(C8H2),X(H16)]
 Deg. of freedom    21
 Full point group                 C2H     NOp   4
 Largest Abelian subgroup         C2H     NOp   4
 Largest concise Abelian subgroup C2H     NOp   4
                         Standard orientation:                         
 ---------------------------------------------------------------------
 Center     Atomic      Atomic             Coordinates (Angstroms)
 Number     Number       Type             X           Y           Z
 ---------------------------------------------------------------------
      1          6           0        0.173137    4.552078    0.000000
      2          6           0        0.859471    3.155691    0.000000
      3          6           0       -0.173137    1.985307    0.000000
      4          6           0        0.516338    0.585146    0.000000
      5          6           0       -0.516338   -0.585146    0.000000
      6          6           0        0.173137   -1.985307    0.000000
      7          6           0       -0.859471   -3.155691    0.000000
      8          6           0       -0.173137   -4.552078    0.000000
      9          1           0       -0.460654    4.674028   -0.891750
     10          1           0        0.927160    5.354248    0.000000
     11          1           0       -0.460654    4.674028    0.891750
     12          1           0        1.508856    3.067710   -0.888609
     13          1           0        1.508856    3.067710    0.888609
     14          1           0       -0.822454    2.072465   -0.888746
     15          1           0       -0.822454    2.072465    0.888746
     16          1           0        1.165755    0.498591    0.888751
     17          1           0        1.165755    0.498591   -0.888751
     18          1           0       -1.165755   -0.498591   -0.888751
     19          1           0       -1.165755   -0.498591    0.888751
     20          1           0        0.822454   -2.072465    0.888746
     21          1           0        0.822454   -2.072465   -0.888746
     22          1           0       -1.508856   -3.067710    0.888609
     23          1           0       -1.508856   -3.067710   -0.888609
     24          1           0        0.460654   -4.674028    0.891750
     25          1           0       -0.927160   -5.354248    0.000000
     26          1           0        0.460654   -4.674028   -0.891750
 ---------------------------------------------------------------------
 Rotational constants (GHZ):     10.3879923      0.4751416      0.4650267
 Standard basis: STO-3G (5D, 7F)
 There are    21 symmetry adapted cartesian basis functions of AG  symmetry.
 There are     8 symmetry adapted cartesian basis functions of BG  symmetry.
 There are     8 symmetry adapted cartesian basis functions of AU  symmetry.
 There are    21 symmetry adapted cartesian basis functions of BU  symmetry.
 There are    21 symmetry adapted basis functions of AG  symmetry.
 There are     8 symmetry adapted basis functions of BG  symmetry.
 There are     8 symmetry adapted basis functions of AU  symmetry.
 There are    21 symmetry adapted basis functions of BU  symmetry.
    58 basis functions,   174 primitive gaussians,    58 cartesian basis functions
    33 alpha electrons       33 beta electrons
       nuclear repulsion energy       369.1026068232 Hartrees.
 NAtoms=   26 NActive=   26 NUniq=    9 SFac= 4.00D+00 NAtFMM=   60 NAOKFM=F Big=F
 Integral buffers will be    131072 words long.
 Raffenetti 2 integral format.
 Two-electron integral symmetry is turned on.
 One-electron integrals computed using PRISM.
 NBasis=    58 RedAO= T EigKep=  1.70D-01  NBF=    21     8     8    21
 NBsUse=    58 1.00D-06 EigRej= -1.00D+00 NBFU=    21     8     8    21
 Initial guess from the checkpoint file:  "/data/trash/Gau-6184.chk"
 B after Tr=     0.000000    0.000000    0.000000
         Rot=    1.000000    0.000000    0.000000   -0.000015 Ang=   0.00 deg.
 Initial guess orbital symmetries:
       Occupied  (BU) (AG) (BU) (AG) (BU) (AG) (BU) (AG) (AG) (BU)
                 (AG) (BU) (AG) (BU) (BU) (AG) (AU) (BG) (AU) (BU)
                 (AG) (AG) (BG) (BU) (AU) (AG) (BU) (BG) (BU) (AU)
                 (BG) (AG) (AG)
       Virtual   (AG) (AG) (AG) (AG) (AG) (AG) (AG) (AG) (BG) (BG)
                 (BG) (BG) (AU) (AU) (AU) (AU) (BU) (BU) (BU) (BU)
                 (BU) (BU) (BU) (BU) (BU)
 Keep R1 ints in memory in symmetry-blocked form, NReq=2377744.
 Requested convergence on RMS density matrix=1.00D-08 within 128 cycles.
 Requested convergence on MAX density matrix=1.00D-06.
 Requested convergence on             energy=1.00D-06.
 No special actions if energy rises.
 SCF Done:  E(RB3LYP) =  -311.974845336     A.U. after    5 cycles
            NFock=  5  Conv=0.77D-08     -V/T= 2.0183
 Calling FoFJK, ICntrl=      2127 FMM=F ISym2X=1 I1Cent= 0 IOpClX= 0 NMat=1 NMatS=1 NMatT=0.
 ***** Axes restored to original set *****
 -------------------------------------------------------------------
 Center     Atomic                   Forces (Hartrees/Bohr)
 Number     Number              X              Y              Z
 -------------------------------------------------------------------
      1        6           0.000015506    0.000007970    0.000009399
      2        6           0.000022342   -0.000000108    0.000016101
      3        6          -0.000003811   -0.000002960   -0.000002089
      4        6          -0.000001580   -0.000006673    0.000000335
      5        6           0.000001580    0.000006673   -0.000000335
      6        6           0.000003811    0.000002960    0.000002089
      7        6          -0.000022342    0.000000108   -0.000016101
      8        6          -0.000015506   -0.000007970   -0.000009399
      9        1           0.000006264    0.000012950    0.000001229
     10        1           0.000000765   -0.000002039    0.000001000
     11        1           0.000005877    0.000013069    0.000001767
     12        1           0.000000659    0.000004083   -0.000000022
     13        1           0.000001031    0.000003969   -0.000000539
     14        1           0.000004016    0.000008124    0.000000588
     15        1           0.000003548    0.000008268    0.000001239
     16        1          -0.000002686   -0.000003215   -0.000000205
     17        1          -0.000001750   -0.000003502   -0.000001505
     18        1           0.000002686    0.000003215    0.000000205
     19        1           0.000001750    0.000003502    0.000001505
     20        1          -0.000004016   -0.000008124   -0.000000588
     21        1          -0.000003548   -0.000008268   -0.000001239
     22        1          -0.000000659   -0.000004083    0.000000022
     23        1          -0.000001031   -0.000003969    0.000000539
     24        1          -0.000006264   -0.000012950   -0.000001229
     25        1          -0.000000765    0.000002039   -0.000001000
     26        1          -0.000005877   -0.000013069   -0.000001767
 -------------------------------------------------------------------
 Cartesian Forces:  Max     0.000022342 RMS     0.000006948

 GradGradGradGradGradGradGradGradGradGradGradGradGradGradGradGradGradGrad
 Berny optimization.
 Using GEDIIS/GDIIS optimizer.
 FormGI is forming the generalized inverse of G from B-inverse, IUseBI=4.
 GSVD:  received Info=                   1 from GESDD.
 Internal  Forces:  Max     0.000033192 RMS     0.000007552
 Search for a local minimum.
 Step number   2 out of a maximum of  146
 All quantities printed in internal units (Hartrees-Bohrs-Radians)
 Mixed Optimization -- En-DIIS/RFO-DIIS
 Swapping is turned off.
 Update second derivatives using D2CorX and points    1    2
 DE= -2.74D-07 DEPred=-2.82D-07 R= 9.72D-01
 Trust test= 9.72D-01 RLast= 2.13D-03 DXMaxT set to 3.00D-01
 ITU=  0  0
     Eigenvalues ---    0.00230   0.00230   0.00230   0.00230   0.00230
     Eigenvalues ---    0.00230   0.00230   0.03470   0.03470   0.03475
     Eigenvalues ---    0.03475   0.03475   0.03475   0.04696   0.04759
     Eigenvalues ---    0.04761   0.04761   0.04761   0.04761   0.05333
     Eigenvalues ---    0.05491   0.05498   0.05498   0.08018   0.08197
     Eigenvalues ---    0.08198   0.08198   0.08206   0.08262   0.12119
     Eigenvalues ---    0.12119   0.12119   0.12119   0.12125   0.12125
     Eigenvalues ---    0.15212   0.16000   0.16000   0.16000   0.16000
     Eigenvalues ---    0.16076   0.21061   0.21925   0.21926   0.21926
     Eigenvalues ---    0.21926   0.24273   0.26720   0.26752   0.26755
     Eigenvalues ---    0.26757   0.27115   0.27149   0.29503   0.33133
     Eigenvalues ---    0.33231   0.33231   0.33231   0.33232   0.33232
     Eigenvalues ---    0.33232   0.33232   0.33234   0.33234   0.33234
     Eigenvalues ---    0.33248   0.33579   0.33580   0.33591   0.33591
     Eigenvalues ---    0.33591   0.33751
 En-DIIS/RFO-DIIS IScMMF=        0 using points:     2    1
 RFO step:  Lambda=-1.53565498D-08.
 DidBck=F Rises=F RFO-DIIS coefs:    0.94595    0.05405
 Iteration  1 RMS(Cart)=  0.00011491 RMS(Int)=  0.00000001
 Iteration  2 RMS(Cart)=  0.00000001 RMS(Int)=  0.00000000
 ClnCor:  largest displacement from symmetrization is 1.88D-08 for atom    17.
 Variable       Old X    -DE/DX   Delta X   Delta X   Delta X     New X
                                 (Linear)    (Quad)   (Total)
    R1        2.94030   0.00000   0.00000  -0.00001  -0.00001   2.94029
    R2        2.08023   0.00000   0.00000   0.00001   0.00001   2.08024
    R3        2.08044   0.00000   0.00000   0.00001   0.00001   2.08045
    R4        2.08023   0.00000   0.00000   0.00001   0.00001   2.08024
    R5        2.94947  -0.00003   0.00000  -0.00012  -0.00012   2.94936
    R6        2.08647   0.00000   0.00000   0.00001   0.00001   2.08648
    R7        2.08647   0.00000   0.00000   0.00001   0.00001   2.08648
    R8        2.94932  -0.00001   0.00000  -0.00005  -0.00005   2.94927
    R9        2.08648   0.00000   0.00000   0.00001   0.00001   2.08649
   R10        2.08648   0.00000   0.00000   0.00001   0.00001   2.08649
   R11        2.94943  -0.00002   0.00000  -0.00008  -0.00008   2.94935
   R12        2.08651   0.00000   0.00000   0.00001   0.00001   2.08652
   R13        2.08651   0.00000   0.00000   0.00001   0.00001   2.08652
   R14        2.94932  -0.00001   0.00000  -0.00005  -0.00005   2.94927
   R15        2.08651   0.00000   0.00000   0.00001   0.00001   2.08652
   R16        2.08651   0.00000   0.00000   0.00001   0.00001   2.08652
   R17        2.94947  -0.00003   0.00000  -0.00012  -0.00012   2.94936
   R18        2.08648   0.00000   0.00000   0.00001   0.00001   2.08649
   R19        2.08648   0.00000   0.00000   0.00001   0.00001   2.08649
   R20        2.94030   0.00000   0.00000  -0.00001  -0.00001   2.94029
   R21        2.08647   0.00000   0.00000   0.00001   0.00001   2.08648
   R22        2.08647   0.00000   0.00000   0.00001   0.00001   2.08648
   R23        2.08023   0.00000   0.00000   0.00001   0.00001   2.08024
   R24        2.08044   0.00000   0.00000   0.00001   0.00001   2.08045
   R25        2.08023   0.00000   0.00000   0.00001   0.00001   2.08024
    A1        1.93199   0.00001  -0.00001   0.00008   0.00007   1.93206
    A2        1.93029  -0.00002   0.00001  -0.00014  -0.00013   1.93017
    A3        1.93199   0.00001  -0.00001   0.00008   0.00007   1.93206
    A4        1.88979   0.00000   0.00001  -0.00001   0.00000   1.88979
    A5        1.88860  -0.00001  -0.00001  -0.00001  -0.00002   1.88858
    A6        1.88979   0.00000   0.00001  -0.00001   0.00000   1.88979
    A7        1.96182   0.00000  -0.00003   0.00006   0.00003   1.96186
    A8        1.90811   0.00000   0.00002  -0.00004  -0.00001   1.90809
    A9        1.90811   0.00000   0.00002  -0.00004  -0.00001   1.90809
   A10        1.90642   0.00000  -0.00001   0.00001   0.00001   1.90643
   A11        1.90642   0.00000  -0.00001   0.00001   0.00001   1.90643
   A12        1.87073   0.00000   0.00000  -0.00003  -0.00002   1.87071
   A13        1.96108  -0.00002  -0.00002  -0.00006  -0.00008   1.96100
   A14        1.90697   0.00001   0.00001   0.00000   0.00001   1.90698
   A15        1.90697   0.00001   0.00001   0.00000   0.00001   1.90698
   A16        1.90775   0.00001   0.00001   0.00004   0.00005   1.90780
   A17        1.90775   0.00001   0.00001   0.00004   0.00005   1.90780
   A18        1.87114  -0.00001   0.00000  -0.00002  -0.00002   1.87111
   A19        1.96101  -0.00002  -0.00002  -0.00006  -0.00008   1.96093
   A20        1.90727   0.00001   0.00001   0.00003   0.00004   1.90731
   A21        1.90727   0.00001   0.00001   0.00003   0.00004   1.90731
   A22        1.90750   0.00001   0.00000   0.00001   0.00002   1.90752
   A23        1.90750   0.00001   0.00000   0.00001   0.00002   1.90752
   A24        1.87111  -0.00001   0.00000  -0.00003  -0.00003   1.87109
   A25        1.96101  -0.00002  -0.00002  -0.00006  -0.00008   1.96093
   A26        1.90750   0.00001   0.00000   0.00001   0.00002   1.90752
   A27        1.90750   0.00001   0.00000   0.00001   0.00002   1.90752
   A28        1.90727   0.00001   0.00001   0.00003   0.00004   1.90731
   A29        1.90727   0.00001   0.00001   0.00003   0.00004   1.90731
   A30        1.87111  -0.00001   0.00000  -0.00003  -0.00003   1.87109
   A31        1.96108  -0.00002  -0.00002  -0.00006  -0.00008   1.96100
   A32        1.90775   0.00001   0.00001   0.00004   0.00005   1.90780
   A33        1.90775   0.00001   0.00001   0.00004   0.00005   1.90780
   A34        1.90697   0.00001   0.00001   0.00000   0.00001   1.90698
   A35        1.90697   0.00001   0.00001   0.00000   0.00001   1.90698
   A36        1.87114  -0.00001   0.00000  -0.00002  -0.00002   1.87111
   A37        1.96182   0.00000  -0.00003   0.00006   0.00003   1.96186
   A38        1.90642   0.00000  -0.00001   0.00001   0.00001   1.90643
   A39        1.90642   0.00000  -0.00001   0.00001   0.00001   1.90643
[...]
    25  H    3.543973   2.199506   1.100928  10.078387  10.867395
    26  H    2.847368   2.200799   1.100813   9.393328  10.078387
                   11         12         13         14         15
    11  H    0.000000
    12  H    3.103079   0.000000
    13  H    2.541546   1.777211   0.000000
    14  H    3.173260   2.534828   3.095854   0.000000
    15  H    2.626680   3.095854   2.534828   1.777484   0.000000
    16  H    4.481040   3.142654   2.591775   3.096735   2.535804
    17  H    4.821811   2.591775   3.142654   2.535804   3.096735
    18  H    5.515697   4.457606   4.798878   2.593759   3.144368
    19  H    5.220419   4.798878   4.457606   3.144368   2.593759
    20  H    6.867358   5.481671   5.185534   4.800510   4.459311
    21  H    7.094416   5.185534   5.481671   4.459311   4.800510
    22  H    7.812186   7.064223   6.837014   5.481671   5.185534
    23  H    8.012484   6.837014   7.064223   5.185534   5.481671
    24  H    9.393328   8.012484   7.812186   7.094416   6.867358
    25  H   10.078387   8.811706   8.811706   7.480100   7.480100
    26  H    9.561144   7.812186   8.012484   6.867358   7.094416
                   16         17         18         19         20
    16  H    0.000000
    17  H    1.777492   0.000000
    18  H    3.096741   2.535809   0.000000
    19  H    2.535809   3.096741   1.777492   0.000000
    20  H    2.593759   3.144368   3.096735   2.535804   0.000000
    21  H    3.144368   2.593759   2.535804   3.096735   1.777484
    22  H    4.457606   4.798878   3.142654   2.591775   2.534828
    23  H    4.798878   4.457606   2.591775   3.142654   3.095854
    24  H    5.220419   5.515697   4.821811   4.481040   2.626680
    25  H    6.278783   6.278783   4.941853   4.941853   3.823700
    26  H    5.515697   5.220419   4.481040   4.821811   3.173260
                   21         22         23         24         25
    21  H    0.000000
    22  H    3.095854   0.000000
    23  H    2.534828   1.777211   0.000000
    24  H    3.173260   2.541546   3.103079   0.000000
    25  H    3.823700   2.521030   2.521030   1.784372   0.000000
    26  H    2.626680   3.103079   2.541546   1.783493   1.784372
                   26
    26  H    0.000000
 Stoichiometry    C8H18
 Framework group  C2H[SGH(C8H2),X(H16)]
 Deg. of freedom    21
 Full point group                 C2H     NOp   4
 Largest Abelian subgroup         C2H     NOp   4
 Largest concise Abelian subgroup C2H     NOp   4
                         Standard orientation:                         
 ---------------------------------------------------------------------
 Center     Atomic      Atomic             Coordinates (Angstroms)
 Number     Number       Type             X           Y           Z
 ---------------------------------------------------------------------
      1          6           0        0.173184    4.551947    0.000000
      2          6           0        0.859423    3.155519    0.000000
      3          6           0       -0.173184    1.985217    0.000000
      4          6           0        0.516345    0.585112    0.000000
      5          6           0       -0.516345   -0.585112    0.000000
      6          6           0        0.173184   -1.985217    0.000000
      7          6           0       -0.859423   -3.155519    0.000000
      8          6           0       -0.173184   -4.551947    0.000000
      9          1           0       -0.460594    4.674025   -0.891747
     10          1           0        0.927367    5.353976    0.000000
     11          1           0       -0.460594    4.674025    0.891747
     12          1           0        1.508817    3.067517   -0.888605
     13          1           0        1.508817    3.067517    0.888605
     14          1           0       -0.822511    2.072399   -0.888742
     15          1           0       -0.822511    2.072399    0.888742
     16          1           0        1.165776    0.498545    0.888746
     17          1           0        1.165776    0.498545   -0.888746
     18          1           0       -1.165776   -0.498545   -0.888746
     19          1           0       -1.165776   -0.498545    0.888746
     20          1           0        0.822511   -2.072399    0.888742
     21          1           0        0.822511   -2.072399   -0.888742
     22          1           0       -1.508817   -3.067517    0.888605
     23          1           0       -1.508817   -3.067517   -0.888605
     24          1           0        0.460594   -4.674025    0.891747
     25          1           0       -0.927367   -5.353976    0.000000
     26          1           0        0.460594   -4.674025   -0.891747
 ---------------------------------------------------------------------
 Rotational constants (GHZ):     10.3880831      0.4751757      0.4650594

 **********************************************************************

            Population analysis using the SCF density.

 **********************************************************************

 Orbital symmetries:
       Occupied  (BU) (AG) (BU) (AG) (BU) (AG) (BU) (AG) (AG) (BU)
                 (AG) (BU) (AG) (BU) (BU) (AG) (AU) (BG) (AU) (BU)
                 (AG) (AG) (BG) (BU) (AU) (AG) (BU) (BG) (BU) (AU)
                 (BG) (AG) (AG)
       Virtual   (BU) (AU) (BG) (AG) (BU) (AG) (BU) (AU) (AG) (BG)
                 (BU) (BU) (AG) (BU) (AU) (AG) (BU) (AG) (AG) (BG)
                 (BU) (BU) (AG) (AU) (BG)
 The electronic state is 1-AG.
 Alpha  occ. eigenvalues --  -10.00722 -10.00722 -10.00472 -10.00424 -10.00363
 Alpha  occ. eigenvalues --  -10.00306  -9.99967  -9.99967  -0.76097  -0.73915
 Alpha  occ. eigenvalues --   -0.70341  -0.65631  -0.60283  -0.55577  -0.53990
 Alpha  occ. eigenvalues --   -0.53644  -0.44310  -0.42310  -0.39237  -0.39166
 Alpha  occ. eigenvalues --   -0.37706  -0.36329  -0.35642  -0.34337  -0.32290
 Alpha  occ. eigenvalues --   -0.31180  -0.30486  -0.29878  -0.28911  -0.28655
 Alpha  occ. eigenvalues --   -0.28317  -0.27791  -0.24854
 Alpha virt. eigenvalues --    0.32007   0.36019   0.38264   0.38358   0.38395
 Alpha virt. eigenvalues --    0.39112   0.40999   0.41419   0.44082   0.44842
 Alpha virt. eigenvalues --    0.45104   0.47396   0.47588   0.48049   0.48108
 Alpha virt. eigenvalues --    0.49565   0.49676   0.49690   0.50290   0.51098
 Alpha virt. eigenvalues --    0.51254   0.52220   0.52313   0.53755   0.55736
          Condensed to atoms (all electrons):
               1          2          3          4          5          6
     1  C    4.785634   0.359431  -0.019915   0.000600  -0.000004   0.000000
     2  C    0.359431   4.776149   0.358361  -0.019053   0.000585  -0.000003
     3  C   -0.019915   0.358361   4.787965   0.358189  -0.018984   0.000584
     4  C    0.000600  -0.019053   0.358189   4.788074   0.358136  -0.018984
     5  C   -0.000004   0.000585  -0.018984   0.358136   4.788074   0.358189
     6  C    0.000000  -0.000003   0.000584  -0.018984   0.358189   4.787965
     7  C    0.000000   0.000000  -0.000003   0.000585  -0.019053   0.358361
     8  C    0.000000   0.000000   0.000000  -0.000004   0.000600  -0.019915
     9  H    0.379495  -0.019561  -0.001947   0.000006   0.000000   0.000000
    10  H    0.379541  -0.018581   0.001146  -0.000013   0.000000   0.000000
    11  H    0.379495  -0.019561  -0.001947   0.000006   0.000000   0.000000
    12  H   -0.021206   0.378120  -0.021339  -0.001942   0.000004   0.000000
    13  H   -0.021206   0.378120  -0.021339  -0.001942   0.000004   0.000000
    14  H   -0.001917  -0.021242   0.377521  -0.021215  -0.001944   0.000005
    15  H   -0.001917  -0.021242   0.377521  -0.021215  -0.001944   0.000005
    16  H    0.000005  -0.001947  -0.021236   0.377500  -0.021224  -0.001945
    17  H    0.000005  -0.001947  -0.021236   0.377500  -0.021224  -0.001945
    18  H    0.000000   0.000005  -0.001945  -0.021224   0.377500  -0.021236
    19  H    0.000000   0.000005  -0.001945  -0.021224   0.377500  -0.021236
    20  H    0.000000   0.000000   0.000005  -0.001944  -0.021215   0.377521
    21  H    0.000000   0.000000   0.000005  -0.001944  -0.021215   0.377521
    22  H    0.000000   0.000000   0.000000   0.000004  -0.001942  -0.021339
    23  H    0.000000   0.000000   0.000000   0.000004  -0.001942  -0.021339
    24  H    0.000000   0.000000   0.000000   0.000000   0.000006  -0.001947
    25  H    0.000000   0.000000   0.000000   0.000000  -0.000013   0.001146
    26  H    0.000000   0.000000   0.000000   0.000000   0.000006  -0.001947
               7          8          9         10         11         12
     1  C    0.000000   0.000000   0.379495   0.379541   0.379495  -0.021206
     2  C    0.000000   0.000000  -0.019561  -0.018581  -0.019561   0.378120
     3  C   -0.000003   0.000000  -0.001947   0.001146  -0.001947  -0.021339
     4  C    0.000585  -0.000004   0.000006  -0.000013   0.000006  -0.001942
     5  C   -0.019053   0.000600   0.000000   0.000000   0.000000   0.000004
     6  C    0.358361  -0.019915   0.000000   0.000000   0.000000   0.000000
     7  C    4.776149   0.359431   0.000000   0.000000   0.000000   0.000000
     8  C    0.359431   4.785634   0.000000   0.000000   0.000000   0.000000
     9  H    0.000000   0.000000   0.613488  -0.020913  -0.021155  -0.002171
    10  H    0.000000   0.000000  -0.020913   0.612485  -0.020913  -0.002058
    11  H    0.000000   0.000000  -0.021155  -0.020913   0.613488   0.001808
    12  H    0.000000   0.000000  -0.002171  -0.002058   0.001808   0.625100
    13  H    0.000000   0.000000   0.001808  -0.002058  -0.002171  -0.022905
    14  H    0.000000   0.000000   0.000534   0.000006  -0.000012  -0.002204
    15  H    0.000000   0.000000  -0.000012   0.000006   0.000534   0.001818
    16  H    0.000005   0.000000   0.000000   0.000000   0.000002  -0.000002
    17  H    0.000005   0.000000   0.000002   0.000000   0.000000   0.000541
    18  H   -0.001947   0.000005   0.000000   0.000000   0.000000   0.000002
    19  H   -0.001947   0.000005   0.000000   0.000000   0.000000   0.000000
    20  H   -0.021242  -0.001917   0.000000   0.000000   0.000000   0.000000
    21  H   -0.021242  -0.001917   0.000000   0.000000   0.000000   0.000000
    22  H    0.378120  -0.021206   0.000000   0.000000   0.000000   0.000000
    23  H    0.378120  -0.021206   0.000000   0.000000   0.000000   0.000000
    24  H   -0.019561   0.379495   0.000000   0.000000   0.000000   0.000000
    25  H   -0.018581   0.379541   0.000000   0.000000   0.000000   0.000000
    26  H   -0.019561   0.379495   0.000000   0.000000   0.000000   0.000000
              13         14         15         16         17         18
     1  C   -0.021206  -0.001917  -0.001917   0.000005   0.000005   0.000000
     2  C    0.378120  -0.021242  -0.021242  -0.001947  -0.001947   0.000005
     3  C   -0.021339   0.377521   0.377521  -0.021236  -0.021236  -0.001945
     4  C   -0.001942  -0.021215  -0.021215   0.377500   0.377500  -0.021224
     5  C    0.000004  -0.001944  -0.001944  -0.021224  -0.021224   0.377500
     6  C    0.000000   0.000005   0.000005  -0.001945  -0.001945  -0.021236
     7  C    0.000000   0.000000   0.000000   0.000005   0.000005  -0.001947
     8  C    0.000000   0.000000   0.000000   0.000000   0.000000   0.000005
     9  H    0.001808   0.000534  -0.000012   0.000000   0.000002   0.000000
    10  H   -0.002058   0.000006   0.000006   0.000000   0.000000   0.000000
    11  H   -0.002171  -0.000012   0.000534   0.000002   0.000000   0.000000
    12  H   -0.022905  -0.002204   0.001818  -0.000002   0.000541   0.000002
    13  H    0.625100   0.001818  -0.002204   0.000541  -0.000002   0.000000
    14  H    0.001818   0.626453  -0.022990   0.001813  -0.002194   0.000534
    15  H   -0.002204  -0.022990   0.626453  -0.002194   0.001813  -0.000001
    16  H    0.000541   0.001813  -0.002194   0.626595  -0.023006   0.001813
    17  H   -0.000002  -0.002194   0.001813  -0.023006   0.626595  -0.002195
    18  H    0.000000   0.000534  -0.000001   0.001813  -0.002195   0.626595
    19  H    0.000002  -0.000001   0.000534  -0.002195   0.001813  -0.023006
    20  H    0.000000   0.000000   0.000002   0.000534  -0.000001   0.001813
    21  H    0.000000   0.000002   0.000000  -0.000001   0.000534  -0.002194
    22  H    0.000000   0.000000   0.000000   0.000002   0.000000  -0.000002
    23  H    0.000000   0.000000   0.000000   0.000000   0.000002   0.000541
    24  H    0.000000   0.000000   0.000000   0.000000   0.000000   0.000000
    25  H    0.000000   0.000000   0.000000   0.000000   0.000000   0.000000
    26  H    0.000000   0.000000   0.000000   0.000000   0.000000   0.000002
              19         20         21         22         23         24
     1  C    0.000000   0.000000   0.000000   0.000000   0.000000   0.000000
     2  C    0.000005   0.000000   0.000000   0.000000   0.000000   0.000000
     3  C   -0.001945   0.000005   0.000005   0.000000   0.000000   0.000000
     4  C   -0.021224  -0.001944  -0.001944   0.000004   0.000004   0.000000
     5  C    0.377500  -0.021215  -0.021215  -0.001942  -0.001942   0.000006
     6  C   -0.021236   0.377521   0.377521  -0.021339  -0.021339  -0.001947
     7  C   -0.001947  -0.021242  -0.021242   0.378120   0.378120  -0.019561
     8  C    0.000005  -0.001917  -0.001917  -0.021206  -0.021206   0.379495
     9  H    0.000000   0.000000   0.000000   0.000000   0.000000   0.000000
    10  H    0.000000   0.000000   0.000000   0.000000   0.000000   0.000000
    11  H    0.000000   0.000000   0.000000   0.000000   0.000000   0.000000
    12  H    0.000000   0.000000   0.000000   0.000000   0.000000   0.000000
    13  H    0.000002   0.000000   0.000000   0.000000   0.000000   0.000000
    14  H   -0.000001   0.000000   0.000002   0.000000   0.000000   0.000000
    15  H    0.000534   0.000002   0.000000   0.000000   0.000000   0.000000
    16  H   -0.002195   0.000534  -0.000001   0.000002   0.000000   0.000000
    17  H    0.001813  -0.000001   0.000534   0.000000   0.000002   0.000000
    18  H   -0.023006   0.001813  -0.002194  -0.000002   0.000541   0.000000
    19  H    0.626595  -0.002194   0.001813   0.000541  -0.000002   0.000002
    20  H   -0.002194   0.626453  -0.022990  -0.002204   0.001818   0.000534
    21  H    0.001813  -0.022990   0.626453   0.001818  -0.002204  -0.000012
    22  H    0.000541  -0.002204   0.001818   0.625100  -0.022905  -0.002171
    23  H   -0.000002   0.001818  -0.002204  -0.022905   0.625100   0.001808
    24  H    0.000002   0.000534  -0.000012  -0.002171   0.001808   0.613488
    25  H    0.000000   0.000006   0.000006  -0.002058  -0.002058  -0.020913
    26  H    0.000000  -0.000012   0.000534   0.001808  -0.002171  -0.021155
              25         26
     1  C    0.000000   0.000000
     2  C    0.000000   0.000000
     3  C    0.000000   0.000000
     4  C    0.000000   0.000000
     5  C   -0.000013   0.000006
     6  C    0.001146  -0.001947
     7  C   -0.018581  -0.019561
     8  C    0.379541   0.379495
     9  H    0.000000   0.000000
    10  H    0.000000   0.000000
    11  H    0.000000   0.000000
    12  H    0.000000   0.000000
    13  H    0.000000   0.000000
    14  H    0.000000   0.000000
    15  H    0.000000   0.000000
    16  H    0.000000   0.000000
    17  H    0.000000   0.000000
    18  H    0.000000   0.000002
    19  H    0.000000   0.000000
    20  H    0.000006  -0.000012
    21  H    0.000006   0.000534
    22  H   -0.002058   0.001808
    23  H   -0.002058  -0.002171
    24  H   -0.020913  -0.021155
    25  H    0.612485  -0.020913
    26  H   -0.020913   0.613488
 Mulliken charges:
               1
     1  C   -0.218041
     2  C   -0.127636
     3  C   -0.129460
     4  C   -0.129899
     5  C   -0.129899
     6  C   -0.129460
     7  C   -0.127636
     8  C   -0.218041
     9  H    0.070427
    10  H    0.071354
    11  H    0.070427
    12  H    0.066436
    13  H    0.066436
    14  H    0.065034
    15  H    0.065034
    16  H    0.064944
    17  H    0.064944
    18  H    0.064944
    19  H    0.064944
    20  H    0.065034
    21  H    0.065034
    22  H    0.066436
    23  H    0.066436
    24  H    0.070427
    25  H    0.071354
    26  H    0.070427
 Sum of Mulliken charges =   0.00000
 Mulliken charges with hydrogens summed into heavy atoms:
               1
     1  C   -0.005833
     2  C    0.005236
     3  C    0.000608
     4  C   -0.000011
     5  C   -0.000011
     6  C    0.000608
     7  C    0.005236
     8  C   -0.005833
 Electronic spatial extent (au):  <R**2>=           2489.9577
 Charge=              0.0000 electrons
 Dipole moment (field-independent basis, Debye):
    X=              0.0000    Y=              0.0000    Z=              0.0000  Tot=              0.0000
 Quadrupole moment (field-independent basis, Debye-Ang):
   XX=            -51.0757   YY=            -51.9892   ZZ=            -50.3568
   XY=              0.1262   XZ=              0.0000   YZ=              0.0000
 Traceless Quadrupole moment (field-independent basis, Debye-Ang):
   XX=              0.0648   YY=             -0.8486   ZZ=              0.7838
   XY=              0.1262   XZ=              0.0000   YZ=              0.0000
 Octapole moment (field-independent basis, Debye-Ang**2):
  XXX=              0.0000  YYY=              0.0000  ZZZ=              0.0000  XYY=              0.0000
  XXY=              0.0000  XXZ=              0.0000  XZZ=              0.0000  YZZ=              0.0000
  YYZ=              0.0000  XYZ=              0.0000
 Hexadecapole moment (field-independent basis, Debye-Ang**3):
 XXXX=           -194.2263 YYYY=          -2964.2001 ZZZZ=            -95.9977 XXXY=           -130.9157
 XXXZ=              0.0000 YYYX=           -116.5317 YYYZ=              0.0000 ZZZX=              0.0000
 ZZZY=              0.0000 XXYY=           -515.3347 XXZZ=            -43.1125 YYZZ=           -499.6219
 XXYZ=              0.0000 YYXZ=              0.0000 ZZXY=            -47.5929
 N-N= 3.691105900432D+02 E-N=-1.457745603774D+03  KE= 3.063667486281D+02
 Symmetry AG   KE= 1.468371522786D+02
 Symmetry BG   KE= 7.977513950475D+00
 Symmetry AU   KE= 7.720553771566D+00
 Symmetry BU   KE= 1.438315286275D+02
 1\1\GINC-MW\FOpt\RB3LYP\STO-3G\C8H18\BING\25-Feb-2019\0\\# opt(tight) 
 b3lyp/sto-3g\\c08h18\\0,1\C,0.3769655551,-1.4277758087,-2.2617995075\C
 ,0.8134816301,-2.7889768585,-1.6473717662\C,2.0893928272,-2.6583943584
 ,-0.7580557359\C,2.5262192469,-4.0243517538,-0.1423552978\C,3.80213151
 77,-3.8936574723,0.7469368433\C,4.2389579373,-5.2596148676,1.362637281
 3\C,5.5148691344,-5.1290323675,2.2519533117\C,5.9513852094,-6.49023341
 74,2.866381053\H,0.1509094789,-0.6978420884,-1.4694075\H,-0.5237721182
 ,-1.5540536573,-2.8820961732\H,1.1763044227,-1.0122313344,-2.894389298
 6\H,-0.0130217188,-3.1974496042,-1.0398208199\H,1.0087612512,-3.510731
 4079,-2.459783092\H,1.894481745,-1.9371483463,0.0549037275\H,2.9164215
 84,-2.2504782465,-1.3652765442\H,2.7207105033,-4.7453196361,-0.9556830
 57\H,1.6987662243,-4.4319883745,0.4645033849\H,3.6076402612,-3.1726895
 9,1.5602646025\H,4.6295845403,-3.4860208515,0.1400781605\H,4.433869019
 6,-5.9808608798,0.549677818\H,3.4119291805,-5.6675309796,1.9698580896\
 H,6.3413724833,-4.7205596219,1.6444023653\H,5.3195895134,-4.4072778182
 ,3.0643646375\H,6.1774412856,-7.2201671376,2.0739890455\H,6.8521228827
 ,-6.3639555688,3.4866777187\H,5.1520463418,-6.9057778917,3.4989708441\
 \Version=ES64L-G09RevD.01\State=1-AG\HF=-311.9748453\RMSD=8.021e-09\RM
 SF=4.171e-06\Dipole=0.,0.,0.\Quadrupole=0.0506305,-0.2555171,0.2048866
 ,0.1937101,-0.4256086,0.3243246\PG=C02H [SGH(C8H2),X(H16)]\\@


 WHEN ALL ELSE FAILS, LOOK AT THE SCHRODINGER EQUATION.
     -- RUSSELL T. PACK, APRIL 1978
 Job cpu time:       0 days  0 hours  1 minutes  1.1 seconds.
 File lengths (MBytes):  RWF=      5 Int=      0 D2E=      0 Chk=      2 Scr=      1
 Normal termination of Gaussian 09 at Mon Feb 25 22:31:32 2019.
