 Entering Gaussian System, Link 0=g09
 Input=c10h12.com
 Output=c10h12.out
 Initial command:
 /home/bing/src/g09_d.01/g09/l1.exe "/data/trash/Gau-4101.inp" -scrdir="/data/trash/"
 Entering Link 1 = /home/bing/src/g09_d.01/g09/l1.exe PID=      4103.
  
 Copyright (c) 1988,1990,1992,1993,1995,1998,2003,2009,2013,
            Gaussian, Inc.  All Rights Reserved.
  
 This is part of the Gaussian(R) 09 program.  It is based on
 the Gaussian(R) 03 system (copyright 2003, Gaussian, Inc.),
 the Gaussian(R) 98 system (copyright 1998, Gaussian, Inc.),
 the Gaussian(R) 94 system (copyright 1995, Gaussian, Inc.),
 the Gaussian 92(TM) system (copyright 1992, Gaussian, Inc.),
 the Gaussian 90(TM) system (copyright 1990, Gaussian, Inc.),
 the Gaussian 88(TM) system (copyright 1988, Gaussian, Inc.),
 the Gaussian 86(TM) system (copyright 1986, Carnegie Mellon
 University), and the Gaussian 82(TM) system (copyright 1983,
 Carnegie Mellon University). Gaussian is a federally registered
 trademark of Gaussian, Inc.
  
 This software contains proprietary and confidential information,
 including trade secrets, belonging to Gaussian, Inc.
  
 This software is provided under written license and may be
 used, copied, transmitted, or stored only in accord with that
 written license.
  
 The following legend is applicable only to US Government
 contracts under FAR:
  
                    RESTRICTED RIGHTS LEGEND
  
 Use, reproduction and disclosure by the US Government is
 subject to restrictions as set forth in subparagraphs (a)
 and (c) of the Commercial Computer Software - Restricted
 Rights clause in FAR 52.227-19.
  
 Gaussian, Inc.
 340 Quinnipiac St., Bldg. 40, Wallingford CT 06492
  
  
 ---------------------------------------------------------------
 Warning -- This program may not be used in any manner that
 competes with the business of Gaussian, Inc. or will provide
 assistance to any competitor of Gaussian, Inc.  The licensee
 of this program is prohibited from giving any competitor of
 Gaussian, Inc. access to this program.  By using this program,
 the user acknowledges that Gaussian, Inc. is engaged in the
 business of creating and licensing software in the field of
 computational chemistry and represents and warrants to the
 licensee that it is not a competitor of Gaussian, Inc. and that
 it will not use this program in any manner prohibited above.
 ---------------------------------------------------------------
  

 Cite this work as:
 Gaussian 09, Revision D.01,
 M. J. Frisch, G. W. Trucks, H. B. Schlegel, G. E. Scuseria, 
 M. A. Robb, J. R. Cheeseman, G. Scalmani, V. Barone, B. Mennucci, 
 G. A. Petersson, H. Nakatsuji, M. Caricato, X. Li, H. P. Hratchian, 
 A. F. Izmaylov, J. Bloino, G. Zheng, J. L. Sonnenberg, M. Hada, 
 M. Ehara, K. Toyota, R. Fukuda, J. Hasegawa, M. Ishida, T. Nakajima, 
 Y. Honda, O. Kitao, H. Nakai, T. Vreven, J. A. Montgomery, Jr., 
 J. E. Peralta, F. Ogliaro, M. Bearpark, J. J. Heyd, E. Brothers, 
 K. N. Kudin, V. N. Staroverov, T. Keith, R. Kobayashi, J. Normand, 
 K. Raghavachari, A. Rendell, J. C. Burant, S. S. Iyengar, J. Tomasi, 
 M. Cossi, N. Rega, J. M. Millam, M. Klene, J. E. Knox, J. B. Cross, 
 V. Bakken, C. Adamo, J. Jaramillo, R. Gomperts, R. E. Stratmann, 
 O. Yazyev, A. J. Austin, R. Cammi, C. Pomelli, J. W. Ochterski, 
 R. L. Martin, K. Morokuma, V. G. Zakrzewski, G. A. Voth, 
 P. Salvador, J. J. Dannenberg, S. Dapprich, A. D. Daniels, 
 O. Farkas, J. B. Foresman, J. V. Ortiz, J. Cioslowski, 
 and D. J. Fox, Gaussian, Inc., Wallingford CT, 2013.
 
 ******************************************
 Gaussian 09:  ES64L-G09RevD.01 24-Apr-2013
                25-Feb-2019 
 ******************************************
 %nproc=6
 Will use up to    6 processors via shared memory.
 -------------------------
 # opt(tight) b3lyp/sto-3g
 -------------------------
 1/7=10,14=-1,18=20,19=15,26=3,38=1/1,3;
 2/9=110,12=2,17=6,18=5,40=1/2;
 3/6=3,11=2,16=1,25=1,30=1,71=1,74=-5/1,2,3;
 4//1;
 5/5=2,38=5/2;
 6/7=2,8=2,9=2,10=2,28=1/1;
 7//1,2,3,16;
 1/7=10,14=-1,18=20,19=15,26=3/3(2);
 2/9=110/2;
 99//99;
 2/9=110/2;
 3/6=3,11=2,16=1,25=1,30=1,71=1,74=-5/1,2,3;
 4/5=5,16=3,69=1/1;
 5/5=2,38=5/2;
 7//1,2,3,16;
 1/7=10,14=-1,18=20,19=15,26=3/3(-5);
 2/9=110/2;
 6/7=2,8=2,9=2,10=2,19=2,28=1/1;
 99/9=1/99;
 ------
 c10h12
 ------
 Symbolic Z-matrix:
 Charge =  0 Multiplicity = 1
 C                     1.1207   -0.27542  -0.2874 
 C                     1.72718   0.544    -1.17002 
 C                     3.18889   0.73863  -1.2482 
 C                     3.79683   1.56916  -2.14347 
 C                     5.24833   1.7654   -2.22453 
 C                     5.85604   2.59794  -3.12213 
 C                     7.30754   2.79418  -3.20319 
 C                     7.91548   3.62471  -4.09846 
 C                     9.3772    3.81935  -4.17664 
 C                     9.98366   4.63876  -5.05926 
 H                     1.69318  -0.86027   0.44288 
 H                     0.03106  -0.39242  -0.26144 
 H                     1.12228   1.11643  -1.88924 
 H                     3.80269   0.17074  -0.53333 
 H                     3.17975   2.13553  -2.85692 
 H                     5.86643   1.1996   -1.51163 
 H                     5.23794   3.16374  -3.83503 
 H                     7.92463   2.22781  -2.48974 
 H                     7.30168   4.1926   -4.81333 
 H                     9.98209   3.24691  -3.45742 
 H                     9.41119   5.22361  -5.78954 
 H                     11.07331   4.75576  -5.08522 
 

 GradGradGradGradGradGradGradGradGradGradGradGradGradGradGradGradGradGrad
 Berny optimization.
 Initialization pass.
                           ----------------------------
                           !    Initial Parameters    !
                           ! (Angstroms and Degrees)  !
 --------------------------                            --------------------------
 ! Name  Definition              Value          Derivative Info.                !
 --------------------------------------------------------------------------------
 ! R1    R(1,2)                  1.3484         estimate D2E/DX2                !
 ! R2    R(1,11)                 1.0968         estimate D2E/DX2                !
 ! R3    R(1,12)                 1.0962         estimate D2E/DX2                !
 ! R4    R(2,3)                  1.4767         estimate D2E/DX2                !
 ! R5    R(2,13)                 1.1004         estimate D2E/DX2                !
 ! R6    R(3,4)                  1.3641         estimate D2E/DX2                !
 ! R7    R(3,14)                 1.1001         estimate D2E/DX2                !
 ! R8    R(4,5)                  1.4669         estimate D2E/DX2                !
 ! R9    R(4,15)                 1.1003         estimate D2E/DX2                !
 ! R10   R(5,6)                  1.3668         estimate D2E/DX2                !
 ! R11   R(5,16)                 1.1002         estimate D2E/DX2                !
 ! R12   R(6,7)                  1.4669         estimate D2E/DX2                !
 ! R13   R(6,17)                 1.1002         estimate D2E/DX2                !
 ! R14   R(7,8)                  1.3641         estimate D2E/DX2                !
 ! R15   R(7,18)                 1.1003         estimate D2E/DX2                !
 ! R16   R(8,9)                  1.4767         estimate D2E/DX2                !
 ! R17   R(8,19)                 1.1001         estimate D2E/DX2                !
 ! R18   R(9,10)                 1.3484         estimate D2E/DX2                !
 ! R19   R(9,20)                 1.1004         estimate D2E/DX2                !
 ! R20   R(10,21)                1.0968         estimate D2E/DX2                !
 ! R21   R(10,22)                1.0962         estimate D2E/DX2                !
 ! A1    A(2,1,11)             121.6735         estimate D2E/DX2                !
 ! A2    A(2,1,12)             121.8314         estimate D2E/DX2                !
 ! A3    A(11,1,12)            116.4951         estimate D2E/DX2                !
 ! A4    A(1,2,3)              124.0525         estimate D2E/DX2                !
 ! A5    A(1,2,13)             119.782          estimate D2E/DX2                !
 ! A6    A(3,2,13)             116.1655         estimate D2E/DX2                !
 ! A7    A(2,3,4)              123.789          estimate D2E/DX2                !
 ! A8    A(2,3,14)             116.7328         estimate D2E/DX2                !
 ! A9    A(4,3,14)             119.4782         estimate D2E/DX2                !
 ! A10   A(3,4,5)              123.9646         estimate D2E/DX2                !
 ! A11   A(3,4,15)             119.2757         estimate D2E/DX2                !
 ! A12   A(5,4,15)             116.7598         estimate D2E/DX2                !
 ! A13   A(4,5,6)              123.898          estimate D2E/DX2                !
 ! A14   A(4,5,16)             116.8264         estimate D2E/DX2                !
 ! A15   A(6,5,16)             119.2756         estimate D2E/DX2                !
 ! A16   A(5,6,7)              123.898          estimate D2E/DX2                !
 ! A17   A(5,6,17)             119.2756         estimate D2E/DX2                !
 ! A18   A(7,6,17)             116.8264         estimate D2E/DX2                !
 ! A19   A(6,7,8)              123.9646         estimate D2E/DX2                !
 ! A20   A(6,7,18)             116.7598         estimate D2E/DX2                !
 ! A21   A(8,7,18)             119.2757         estimate D2E/DX2                !
 ! A22   A(7,8,9)              123.789          estimate D2E/DX2                !
 ! A23   A(7,8,19)             119.4782         estimate D2E/DX2                !
 ! A24   A(9,8,19)             116.7328         estimate D2E/DX2                !
 ! A25   A(8,9,10)             124.0525         estimate D2E/DX2                !
 ! A26   A(8,9,20)             116.1655         estimate D2E/DX2                !
 ! A27   A(10,9,20)            119.782          estimate D2E/DX2                !
 ! A28   A(9,10,21)            121.6735         estimate D2E/DX2                !
 ! A29   A(9,10,22)            121.8314         estimate D2E/DX2                !
 ! A30   A(21,10,22)           116.4951         estimate D2E/DX2                !
 ! D1    D(11,1,2,3)             0.0            estimate D2E/DX2                !
 ! D2    D(11,1,2,13)          180.0            estimate D2E/DX2                !
 ! D3    D(12,1,2,3)          -180.0            estimate D2E/DX2                !
 ! D4    D(12,1,2,13)            0.0            estimate D2E/DX2                !
 ! D5    D(1,2,3,4)           -180.0            estimate D2E/DX2                !
 ! D6    D(1,2,3,14)             0.0            estimate D2E/DX2                !
 ! D7    D(13,2,3,4)             0.0            estimate D2E/DX2                !
 ! D8    D(13,2,3,14)          180.0            estimate D2E/DX2                !
 ! D9    D(2,3,4,5)            180.0            estimate D2E/DX2                !
 ! D10   D(2,3,4,15)             0.0            estimate D2E/DX2                !
 ! D11   D(14,3,4,5)             0.0            estimate D2E/DX2                !
 ! D12   D(14,3,4,15)         -180.0            estimate D2E/DX2                !
 ! D13   D(3,4,5,6)           -180.0            estimate D2E/DX2                !
 ! D14   D(3,4,5,16)             0.0            estimate D2E/DX2                !
 ! D15   D(15,4,5,6)             0.0            estimate D2E/DX2                !
 ! D16   D(15,4,5,16)          180.0            estimate D2E/DX2                !
 ! D17   D(4,5,6,7)           -180.0            estimate D2E/DX2                !
 ! D18   D(4,5,6,17)             0.0            estimate D2E/DX2                !
 ! D19   D(16,5,6,7)             0.0            estimate D2E/DX2                !
 ! D20   D(16,5,6,17)         -180.0            estimate D2E/DX2                !
 ! D21   D(5,6,7,8)           -180.0            estimate D2E/DX2                !
 ! D22   D(5,6,7,18)             0.0            estimate D2E/DX2                !
 ! D23   D(17,6,7,8)             0.0            estimate D2E/DX2                !
 ! D24   D(17,6,7,18)          180.0            estimate D2E/DX2                !
 ! D25   D(6,7,8,9)            180.0            estimate D2E/DX2                !
 ! D26   D(6,7,8,19)             0.0            estimate D2E/DX2                !
 ! D27   D(18,7,8,9)             0.0            estimate D2E/DX2                !
 ! D28   D(18,7,8,19)         -180.0            estimate D2E/DX2                !
 ! D29   D(7,8,9,10)           180.0            estimate D2E/DX2                !
 ! D30   D(7,8,9,20)             0.0            estimate D2E/DX2                !
 ! D31   D(19,8,9,10)            0.0            estimate D2E/DX2                !
 ! D32   D(19,8,9,20)         -180.0            estimate D2E/DX2                !
 ! D33   D(8,9,10,21)            0.0            estimate D2E/DX2                !
 ! D34   D(8,9,10,22)         -180.0            estimate D2E/DX2                !
 ! D35   D(20,9,10,21)         180.0            estimate D2E/DX2                !
 ! D36   D(20,9,10,22)           0.0            estimate D2E/DX2                !
 --------------------------------------------------------------------------------
 Trust Radius=3.00D-01 FncErr=1.00D-07 GrdErr=1.00D-06
 Number of steps in this run=     97 maximum allowed number of steps=    132.
 GradGradGradGradGradGradGradGradGradGradGradGradGradGradGradGradGradGrad

                          Input orientation:                          
 ---------------------------------------------------------------------
 Center     Atomic      Atomic             Coordinates (Angstroms)
 Number     Number       Type             X           Y           Z
 ---------------------------------------------------------------------
      1          6           0        1.120705   -0.275415   -0.287397
      2          6           0        1.727176    0.543995   -1.170017
      3          6           0        3.188892    0.738630   -1.248202
      4          6           0        3.796833    1.569156   -2.143469
      5          6           0        5.248334    1.765403   -2.224528
      6          6           0        5.856038    2.597937   -3.122130
      7          6           0        7.307539    2.794184   -3.203189
      8          6           0        7.915480    3.624710   -4.098457
      9          6           0        9.377195    3.819346   -4.176643
     10          6           0        9.983665    4.638757   -5.059263
     11          1           0        1.693177   -0.860269    0.442876
     12          1           0        0.031064   -0.392417   -0.261444
     13          1           0        1.122277    1.116434   -1.889236
     14          1           0        3.802686    0.170742   -0.533332
     15          1           0        3.179747    2.135528   -2.856920
     16          1           0        5.866427    1.199601   -1.511631
     17          1           0        5.237945    3.163739   -3.835027
     18          1           0        7.924625    2.227813   -2.489738
     19          1           0        7.301685    4.192598   -4.813326
     20          1           0        9.982095    3.246908   -3.457424
     21          1           0        9.411191    5.223610   -5.789536
     22          1           0       11.073305    4.755760   -5.085217
 ---------------------------------------------------------------------
                    Distance matrix (angstroms):
                    1          2          3          4          5
     1  C    0.000000
     2  C    1.348428   0.000000
     3  C    2.495762   1.476689   0.000000
     4  C    3.742874   2.506401   1.364137   0.000000
     5  C    4.995472   3.873292   2.499756   1.466949   0.000000
     6  C    6.222157   5.007686   3.752638   2.501298   1.366786
     7  C    7.496746   6.351189   5.001053   3.866362   2.501298
     8  C    8.712297   7.507441   6.228487   5.001053   3.752638
     9  C   10.003146   8.848193   7.507442   6.351189   5.007687
    10  C   11.201422  10.003146   8.712297   7.496745   6.222157
    11  H    1.096849   2.138817   2.766475   4.125125   5.162203
    12  H    1.096212   2.139899   3.496403   4.644438   5.977441
    13  H    2.122059   1.100393   2.196487   2.724489   4.190218
    14  H    2.729938   2.202823   1.100127   2.132636   2.737332
    15  H    4.081023   2.736528   2.130582   1.100265   2.194530
    16  H    5.118232   4.204750   2.729668   2.195224   1.100179
    17  H    6.431572   5.127459   4.095294   2.735117   2.132875
    18  H    7.576925   6.556316   5.117250   4.194329   2.728863
    19  H    8.868579   7.593494   6.446322   5.127823   4.099926
    20  H   10.048884   8.982297   7.570980   6.542079   5.111103
    21  H   11.368596  10.113498   8.913797   7.626917   6.480575
    22  H   12.140266  10.973509   9.644895   8.470855   7.145353
                    6          7          8          9         10
     6  C    0.000000
     7  C    1.466949   0.000000
     8  C    2.499756   1.364137   0.000000
     9  C    3.873292   2.506401   1.476689   0.000000
    10  C    4.995472   3.742874   2.495762   1.348428   0.000000
    11  H    6.480576   7.626918   8.913798  10.113500  11.368597
    12  H    7.145352   8.470855   9.644895  10.973509  12.140266
    13  H    5.111102   6.542078   7.570978   8.982296  10.048882
    14  H    4.099927   5.127824   6.446323   7.593496   8.868580
    15  H    2.728862   4.194329   5.117249   6.556316   7.576923
    16  H    2.132875   2.735118   4.095295   5.127460   6.431573
    17  H    1.100179   2.195224   2.729667   4.204749   5.118231
    18  H    2.194530   1.100265   2.130582   2.736528   4.081024
    19  H    2.737332   2.132636   1.100127   2.202823   2.729938
    20  H    4.190219   2.724490   2.196487   1.100393   2.122059
    21  H    5.162203   4.125125   2.766475   2.138817   1.096849
    22  H    5.977441   4.644438   3.496403   2.139899   1.096212
                   11         12         13         14         15
    11  H    0.000000
    12  H    1.864825   0.000000
    13  H    3.109989   2.473274   0.000000
    14  H    2.542832   3.823114   3.149190   0.000000
    15  H    4.698228   4.800126   2.491616   3.106042   0.000000
    16  H    5.047690   6.176484   4.759880   2.504925   3.147064
    17  H    6.859918   7.247645   4.991621   4.681793   2.500017
    18  H    7.547676   8.610413   6.918649   5.004942   4.759958
    19  H    9.198613   9.726455   7.496544   6.836422   5.004940
    20  H   10.039293  11.067158   9.246324   7.496546   6.918649
    21  H   11.637194  12.250974  10.039290   9.198614   7.547674
    22  H   12.250976  13.103573  11.067157   9.726457   8.610411
                   16         17         18         19         20
    16  H    0.000000
    17  H    3.106605   0.000000
    18  H    2.500019   3.147064   0.000000
    19  H    4.681793   2.504924   3.106042   0.000000
    20  H    4.991623   4.759880   2.491617   3.149190   0.000000
    21  H    6.859918   5.047689   4.698228   2.542831   3.109989
    22  H    7.247646   6.176483   4.800127   3.823114   2.473275
                   21         22
    21  H    0.000000
    22  H    1.864825   0.000000
 Stoichiometry    C10H12
 Framework group  CS[SG(C10H12)]
 Deg. of freedom    41
 Full point group                 CS      NOp   2
 Largest Abelian subgroup         CS      NOp   2
 Largest concise Abelian subgroup C1      NOp   1
                         Standard orientation:                         
 ---------------------------------------------------------------------
 Center     Atomic      Atomic             Coordinates (Angstroms)
 Number     Number       Type             X           Y           Z
 ---------------------------------------------------------------------
      1          6           0       -2.061937   -5.207339    0.000000
      2          6           0       -2.157593   -3.862308    0.000000
      3          6           0       -0.995859   -2.950725    0.000000
      4          6           0       -1.098885   -1.590484    0.000000
      5          6           0        0.052406   -0.681381    0.000000
      6          6           0       -0.052404    0.681380    0.000000
      7          6           0        1.098887    1.590484    0.000000
      8          6           0        0.995859    2.950724    0.000000
      9          6           0        2.157592    3.862309    0.000000
     10          6           0        2.061935    5.207339    0.000000
     11          1           0       -1.089955   -5.715599    0.000000
     12          1           0       -2.949922   -5.850116    0.000000
     13          1           0       -3.149014   -3.384868    0.000000
     14          1           0        0.000000   -3.418212    0.000000
     15          1           0       -2.096516   -1.126462    0.000000
     16          1           0        1.050497   -1.144206    0.000000
     17          1           0       -1.050496    1.144205    0.000000
     18          1           0        2.096518    1.126462    0.000000
     19          1           0        0.000000    3.418211    0.000000
     20          1           0        3.149014    3.384870    0.000000
     21          1           0        1.089953    5.715599    0.000000
     22          1           0        2.949920    5.850118    0.000000
 ---------------------------------------------------------------------
 Rotational constants (GHZ):     15.1579907      0.2870529      0.2817179
 Standard basis: STO-3G (5D, 7F)
 There are    52 symmetry adapted cartesian basis functions of A'  symmetry.
 There are    10 symmetry adapted cartesian basis functions of A"  symmetry.
 There are    52 symmetry adapted basis functions of A'  symmetry.
 There are    10 symmetry adapted basis functions of A"  symmetry.
    62 basis functions,   186 primitive gaussians,    62 cartesian basis functions
    36 alpha electrons       36 beta electrons
       nuclear repulsion energy       406.7082222663 Hartrees.
 NAtoms=   22 NActive=   22 NUniq=   22 SFac= 1.00D+00 NAtFMM=   60 NAOKFM=F Big=F
 Integral buffers will be    131072 words long.
 Raffenetti 2 integral format.
 Two-electron integral symmetry is turned on.
 One-electron integrals computed using PRISM.
 NBasis=    62 RedAO= T EigKep=  2.74D-01  NBF=    52    10
 NBsUse=    62 1.00D-06 EigRej= -1.00D+00 NBFU=    52    10
 ExpMin= 1.69D-01 ExpMax= 7.16D+01 ExpMxC= 7.16D+01 IAcc=1 IRadAn=         1 AccDes= 0.00D+00
 Harris functional with IExCor=  402 and IRadAn=       1 diagonalized for initial guess.
 HarFok:  IExCor=  402 AccDes= 0.00D+00 IRadAn=         1 IDoV= 1 UseB2=F ITyADJ=14
 ICtDFT=  3500011 ScaDFX=  1.000000  1.000000  1.000000  1.000000
 FoFCou: FMM=F IPFlag=           0 FMFlag=      100000 FMFlg1=           0
         NFxFlg=           0 DoJE=T BraDBF=F KetDBF=T FulRan=T
         wScrn=  0.000000 ICntrl=     500 IOpCl=  0 I1Cent=   200000004 NGrid=           0
         NMat0=    1 NMatS0=      1 NMatT0=    0 NMatD0=    1 NMtDS0=    0 NMtDT0=    0
 Petite list used in FoFCou.
 Initial guess orbital symmetries:
       Occupied  (A') (A') (A') (A') (A') (A') (A') (A') (A') (A')
                 (A') (A') (A') (A') (A') (A') (A') (A') (A') (A')
                 (A') (A') (A') (A') (A') (A') (A') (A') (A') (A')
                 (A') (A") (A") (A") (A") (A")
       Virtual   (A") (A") (A") (A") (A") (A') (A') (A') (A') (A')
                 (A') (A') (A') (A') (A') (A') (A') (A') (A') (A')
                 (A') (A') (A') (A') (A') (A')
 The electronic state of the initial guess is 1-A'.
 Keep R1 ints in memory in symmetry-blocked form, NReq=3106776.
 Requested convergence on RMS density matrix=1.00D-08 within 128 cycles.
 Requested convergence on MAX density matrix=1.00D-06.
 Requested convergence on             energy=1.00D-06.
 No special actions if energy rises.
 Integral accuracy reduced to 1.0D-05 until final iterations.
 Initial convergence to 1.0D-05 achieved.  Increase integral accuracy.
 SCF Done:  E(RB3LYP) =  -383.445424266     A.U. after   12 cycles
            NFock= 12  Conv=0.80D-08     -V/T= 2.0167

 **********************************************************************

            Population analysis using the SCF density.

 **********************************************************************

 Orbital symmetries:
       Occupied  (A') (A') (A') (A') (A') (A') (A') (A') (A') (A')
                 (A') (A') (A') (A') (A') (A') (A') (A') (A') (A')
                 (A') (A') (A') (A') (A') (A') (A') (A') (A') (A')
                 (A") (A') (A") (A") (A") (A")
       Virtual   (A") (A") (A") (A") (A") (A') (A') (A') (A') (A')
                 (A') (A') (A') (A') (A') (A') (A') (A') (A') (A')
                 (A') (A') (A') (A') (A') (A')
 The electronic state is 1-A'.
 Alpha  occ. eigenvalues --  -10.00819 -10.00819 -10.00737 -10.00714 -10.00648
 Alpha  occ. eigenvalues --  -10.00618 -10.00559 -10.00558  -9.99154  -9.99154
 Alpha  occ. eigenvalues --   -0.77699  -0.76048  -0.73465  -0.70050  -0.66070
 Alpha  occ. eigenvalues --   -0.58623  -0.54017  -0.52375  -0.51118  -0.50659
 Alpha  occ. eigenvalues --   -0.43777  -0.43254  -0.40493  -0.40002  -0.36755
 Alpha  occ. eigenvalues --   -0.35762  -0.33812  -0.32950  -0.31939  -0.30630
 Alpha  occ. eigenvalues --   -0.29533  -0.29410  -0.27246  -0.23589  -0.18680
 Alpha  occ. eigenvalues --   -0.12996
 Alpha virt. eigenvalues --    0.01315   0.07958   0.14332   0.19495   0.22820
 Alpha virt. eigenvalues --    0.31451   0.35153   0.38980   0.41050   0.41450
 Alpha virt. eigenvalues --    0.42510   0.42746   0.43053   0.43077   0.43161
 Alpha virt. eigenvalues --    0.43813   0.53443   0.53626   0.58440   0.60474
 Alpha virt. eigenvalues --    0.64319   0.66444   0.68871   0.72089   0.75701
 Alpha virt. eigenvalues --    0.77639
          Condensed to atoms (all electrons):
               1          2          3          4          5          6
     1  C    4.856136   0.579877  -0.027588   0.000685  -0.000006   0.000000
     2  C    0.579877   4.790146   0.425809  -0.026671   0.000812  -0.000006
     3  C   -0.027588   0.425809   4.818289   0.559187  -0.026943   0.000692
     4  C    0.000685  -0.026671   0.559187   4.809543   0.435575  -0.026921
     5  C   -0.000006   0.000812  -0.026943   0.435575   4.812612   0.555454
     6  C    0.000000  -0.000006   0.000692  -0.026921   0.555454   4.812612
     7  C    0.000000   0.000000  -0.000006   0.000815  -0.026921   0.435575
     8  C    0.000000   0.000000   0.000000  -0.000006   0.000692  -0.026943
     9  C    0.000000   0.000000   0.000000   0.000000  -0.000006   0.000812
    10  C    0.000000   0.000000   0.000000   0.000000   0.000000  -0.000006
    11  H    0.386164  -0.024414  -0.004213   0.000025  -0.000001   0.000000
    12  H    0.388064  -0.023835   0.001413  -0.000019   0.000000   0.000000
    13  H   -0.026789   0.385304  -0.025302  -0.003228   0.000003   0.000000
    14  H   -0.003077  -0.024617   0.384230  -0.026629  -0.004170   0.000025
    15  H    0.000027  -0.004223  -0.026734   0.384324  -0.024928  -0.003268
    16  H    0.000000   0.000004  -0.003251  -0.024873   0.384350  -0.026638
    17  H    0.000000  -0.000001   0.000025  -0.004180  -0.026638   0.384350
    18  H    0.000000   0.000000   0.000000   0.000004  -0.003268  -0.024928
    19  H    0.000000   0.000000   0.000000  -0.000001   0.000025  -0.004170
    20  H    0.000000   0.000000   0.000000   0.000000   0.000000   0.000003
    21  H    0.000000   0.000000   0.000000   0.000000   0.000000  -0.000001
    22  H    0.000000   0.000000   0.000000   0.000000   0.000000   0.000000
               7          8          9         10         11         12
     1  C    0.000000   0.000000   0.000000   0.000000   0.386164   0.388064
     2  C    0.000000   0.000000   0.000000   0.000000  -0.024414  -0.023835
     3  C   -0.000006   0.000000   0.000000   0.000000  -0.004213   0.001413
     4  C    0.000815  -0.000006   0.000000   0.000000   0.000025  -0.000019
     5  C   -0.026921   0.000692  -0.000006   0.000000  -0.000001   0.000000
     6  C    0.435575  -0.026943   0.000812  -0.000006   0.000000   0.000000
     7  C    4.809543   0.559187  -0.026671   0.000685   0.000000   0.000000
     8  C    0.559187   4.818289   0.425809  -0.027588   0.000000   0.000000
     9  C   -0.026671   0.425809   4.790146   0.579877   0.000000   0.000000
    10  C    0.000685  -0.027588   0.579877   4.856136   0.000000   0.000000
    11  H    0.000000   0.000000   0.000000   0.000000   0.586684  -0.023572
    12  H    0.000000   0.000000   0.000000   0.000000  -0.023572   0.584208
    13  H    0.000000   0.000000   0.000000   0.000000   0.002006  -0.004630
    14  H   -0.000001   0.000000   0.000000   0.000000   0.000954   0.000000
    15  H    0.000004   0.000000   0.000000   0.000000   0.000001  -0.000001
    16  H   -0.004180   0.000025  -0.000001   0.000000   0.000000   0.000000
    17  H   -0.024873  -0.003251   0.000004   0.000000   0.000000   0.000000
    18  H    0.384324  -0.026734  -0.004223   0.000027   0.000000   0.000000
    19  H   -0.026629   0.384230  -0.024617  -0.003077   0.000000   0.000000
    20  H   -0.003228  -0.025302   0.385304  -0.026789   0.000000   0.000000
    21  H    0.000025  -0.004213  -0.024414   0.386164   0.000000   0.000000
    22  H   -0.000019   0.001413  -0.023835   0.388064   0.000000   0.000000
              13         14         15         16         17         18
     1  C   -0.026789  -0.003077   0.000027   0.000000   0.000000   0.000000
     2  C    0.385304  -0.024617  -0.004223   0.000004  -0.000001   0.000000
     3  C   -0.025302   0.384230  -0.026734  -0.003251   0.000025   0.000000
     4  C   -0.003228  -0.026629   0.384324  -0.024873  -0.004180   0.000004
     5  C    0.000003  -0.004170  -0.024928   0.384350  -0.026638  -0.003268
     6  C    0.000000   0.000025  -0.003268  -0.026638   0.384350  -0.024928
     7  C    0.000000  -0.000001   0.000004  -0.004180  -0.024873   0.384324
     8  C    0.000000   0.000000   0.000000   0.000025  -0.003251  -0.026734
     9  C    0.000000   0.000000   0.000000  -0.000001   0.000004  -0.004223
    10  C    0.000000   0.000000   0.000000   0.000000   0.000000   0.000027
    11  H    0.002006   0.000954   0.000001   0.000000   0.000000   0.000000
    12  H   -0.004630   0.000000  -0.000001   0.000000   0.000000   0.000000
    13  H    0.592557   0.001553   0.001015   0.000000   0.000000   0.000000
    14  H    0.001553   0.592430   0.001973   0.000976   0.000001   0.000000
    15  H    0.001015   0.001973   0.592791   0.001575   0.000983   0.000000
    16  H    0.000000   0.000976   0.001575   0.592572   0.001964   0.000983
    17  H    0.000000   0.000001   0.000983   0.001964   0.592572   0.001575
    18  H    0.000000   0.000000   0.000000   0.000983   0.001575   0.592791
    19  H    0.000000   0.000000   0.000000   0.000001   0.000976   0.001973
    20  H    0.000000   0.000000   0.000000   0.000000   0.000000   0.001015
    21  H    0.000000   0.000000   0.000000   0.000000   0.000000   0.000001
    22  H    0.000000   0.000000   0.000000   0.000000   0.000000  -0.000001
              19         20         21         22
     1  C    0.000000   0.000000   0.000000   0.000000
     2  C    0.000000   0.000000   0.000000   0.000000
     3  C    0.000000   0.000000   0.000000   0.000000
     4  C   -0.000001   0.000000   0.000000   0.000000
     5  C    0.000025   0.000000   0.000000   0.000000
     6  C   -0.004170   0.000003  -0.000001   0.000000
     7  C   -0.026629  -0.003228   0.000025  -0.000019
     8  C    0.384230  -0.025302  -0.004213   0.001413
     9  C   -0.024617   0.385304  -0.024414  -0.023835
    10  C   -0.003077  -0.026789   0.386164   0.388064
    11  H    0.000000   0.000000   0.000000   0.000000
    12  H    0.000000   0.000000   0.000000   0.000000
    13  H    0.000000   0.000000   0.000000   0.000000
    14  H    0.000000   0.000000   0.000000   0.000000
    15  H    0.000000   0.000000   0.000000   0.000000
    16  H    0.000001   0.000000   0.000000   0.000000
    17  H    0.000976   0.000000   0.000000   0.000000
    18  H    0.001973   0.001015   0.000001  -0.000001
    19  H    0.592430   0.001553   0.000954   0.000000
    20  H    0.001553   0.592557   0.002006  -0.004630
    21  H    0.000954   0.002006   0.586684  -0.023572
    22  H    0.000000  -0.004630  -0.023572   0.584208
 Mulliken charges:
               1
     1  C   -0.153493
     2  C   -0.078185
     3  C   -0.075607
     4  C   -0.077631
     5  C   -0.076642
     6  C   -0.076642
     7  C   -0.077631
     8  C   -0.075607
     9  C   -0.078185
    10  C   -0.153493
    11  H    0.076366
    12  H    0.078371
    13  H    0.077513
    14  H    0.076351
    15  H    0.076462
    16  H    0.076494
    17  H    0.076494
    18  H    0.076462
    19  H    0.076351
    20  H    0.077513
    21  H    0.076366
    22  H    0.078371
 Sum of Mulliken charges =   0.00000
 Mulliken charges with hydrogens summed into heavy atoms:
               1
     1  C    0.001245
     2  C   -0.000672
     3  C    0.000744
     4  C   -0.001169
     5  C   -0.000148
     6  C   -0.000148
     7  C   -0.001169
     8  C    0.000744
     9  C   -0.000672
    10  C    0.001245
 Electronic spatial extent (au):  <R**2>=           3743.0671
 Charge=              0.0000 electrons
 Dipole moment (field-independent basis, Debye):
    X=              0.0000    Y=              0.0000    Z=              0.0000  Tot=              0.0000
 Quadrupole moment (field-independent basis, Debye-Ang):
   XX=            -51.8299   YY=            -52.1080   ZZ=            -60.3896
   XY=             -0.3276   XZ=              0.0000   YZ=              0.0000
 Traceless Quadrupole moment (field-independent basis, Debye-Ang):
   XX=              2.9459   YY=              2.6678   ZZ=             -5.6137
   XY=             -0.3276   XZ=              0.0000   YZ=              0.0000
 Octapole moment (field-independent basis, Debye-Ang**2):
  XXX=              0.0000  YYY=              0.0000  ZZZ=              0.0000  XYY=              0.0000
  XXY=              0.0000  XXZ=              0.0000  XZZ=              0.0000  YZZ=              0.0000
  YYZ=              0.0000  XYZ=              0.0000
 Hexadecapole moment (field-independent basis, Debye-Ang**3):
 XXXX=           -834.4809 YYYY=          -3678.1048 ZZZZ=            -48.9830 XXXY=           -771.3801
 XXXZ=              0.0000 YYYX=           -776.1290 YYYZ=              0.0000 ZZZX=              0.0000
 ZZZY=              0.0000 XXYY=           -740.2025 XXZZ=           -169.9736 YYZZ=           -712.5026
 XXYZ=              0.0000 YYXZ=              0.0000 ZZXY=           -298.6605
 N-N= 4.067082222663D+02 E-N=-1.700532821357D+03  KE= 3.771629768371D+02
 Symmetry A'   KE= 3.645681947458D+02
 Symmetry A"   KE= 1.259478209127D+01
 Calling FoFJK, ICntrl=      2127 FMM=F ISym2X=1 I1Cent= 0 IOpClX= 0 NMat=1 NMatS=1 NMatT=0.
 ***** Axes restored to original set *****
 -------------------------------------------------------------------
 Center     Atomic                   Forces (Hartrees/Bohr)
 Number     Number              X              Y              Z
 -------------------------------------------------------------------
      1        6           0.000009731   -0.000001535    0.000002737
      2        6           0.000007641   -0.000002909    0.000004111
      3        6          -0.000008463    0.000002462   -0.000003678
      4        6           0.000005003   -0.000000927    0.000001566
      5        6          -0.000005706    0.000000142   -0.000000733
      6        6           0.000005708   -0.000000139    0.000000729
      7        6          -0.000005002    0.000000934   -0.000001574
      8        6           0.000008459   -0.000002468    0.000003685
      9        6          -0.000007643    0.000002908   -0.000004110
     10        6          -0.000009726    0.000001536   -0.000002738
     11        1          -0.000003965    0.000000890   -0.000001420
     12        1          -0.000011757    0.000001747   -0.000003184
     13        1          -0.000004888   -0.000010958    0.000012125
     14        1           0.000000261    0.000004862   -0.000005570
     15        1           0.000001673   -0.000005945    0.000007009
     16        1          -0.000000437    0.000007337   -0.000008489
     17        1           0.000000439   -0.000007340    0.000008492
     18        1          -0.000001674    0.000005941   -0.000007005
     19        1          -0.000000264   -0.000004858    0.000005565
     20        1           0.000004885    0.000010956   -0.000012123
     21        1           0.000003972   -0.000000888    0.000001418
     22        1           0.000011754   -0.000001748    0.000003185
 -------------------------------------------------------------------
 Cartesian Forces:  Max     0.000012125 RMS     0.000005694

 GradGradGradGradGradGradGradGradGradGradGradGradGradGradGradGradGradGrad
 Berny optimization.
 FormGI is forming the generalized inverse of G from B-inverse, IUseBI=4.
 Internal  Forces:  Max     0.000024577 RMS     0.000007913
 Search for a local minimum.
 Step number   1 out of a maximum of   97
 All quantities printed in internal units (Hartrees-Bohrs-Radians)
 Mixed Optimization -- En-DIIS/RFO-DIIS
 Second derivative matrix not updated -- first step.
 ITU=  0
     Eigenvalues ---    0.01074   0.01074   0.01203   0.01203   0.01838
     Eigenvalues ---    0.01838   0.01881   0.01881   0.01899   0.01899
     Eigenvalues ---    0.01951   0.01951   0.02528   0.02563   0.02563
     Eigenvalues ---    0.02771   0.02771   0.02771   0.02771   0.16000
     Eigenvalues ---    0.16000   0.16000   0.16000   0.16000   0.16000
     Eigenvalues ---    0.16000   0.16000   0.16000   0.16000   0.16000
     Eigenvalues ---    0.16000   0.22000   0.22000   0.22000   0.22000
     Eigenvalues ---    0.22000   0.22000   0.22000   0.22000   0.33639
     Eigenvalues ---    0.33639   0.33653   0.33653   0.33662   0.33662
     Eigenvalues ---    0.33668   0.33668   0.34033   0.34033   0.34105
     Eigenvalues ---    0.34105   0.34951   0.34951   0.36108   0.36108
     Eigenvalues ---    0.51599   0.52120   0.52120   0.55357   0.55357
 RFO step:  Lambda=-2.43462993D-08 EMin= 1.07431236D-02
 Linear search not attempted -- first point.
 Iteration  1 RMS(Cart)=  0.00012618 RMS(Int)=  0.00000001
 Iteration  2 RMS(Cart)=  0.00000001 RMS(Int)=  0.00000001
 ClnCor:  largest displacement from symmetrization is 5.25D-08 for atom    21.
 Variable       Old X    -DE/DX   Delta X   Delta X   Delta X     New X
                                 (Linear)    (Quad)   (Total)
    R1        2.54816   0.00000   0.00000   0.00000   0.00000   2.54816
    R2        2.07274  -0.00001   0.00000  -0.00001  -0.00001   2.07273
    R3        2.07154   0.00001   0.00000   0.00004   0.00004   2.07158
    R4        2.79054   0.00001   0.00000   0.00003   0.00003   2.79056
    R5        2.07944  -0.00001   0.00000  -0.00003  -0.00003   2.07941
    R6        2.57785   0.00001   0.00000   0.00001   0.00001   2.57786
    R7        2.07894  -0.00001   0.00000  -0.00002  -0.00002   2.07892
    R8        2.77213   0.00001   0.00000   0.00003   0.00003   2.77216
    R9        2.07920  -0.00001   0.00000  -0.00002  -0.00002   2.07918
   R10        2.58285   0.00001   0.00000   0.00001   0.00001   2.58286
   R11        2.07904  -0.00001   0.00000  -0.00003  -0.00003   2.07901
   R12        2.77213   0.00001   0.00000   0.00003   0.00003   2.77216
   R13        2.07904  -0.00001   0.00000  -0.00003  -0.00003   2.07901
   R14        2.57785   0.00001   0.00000   0.00001   0.00001   2.57786
   R15        2.07920  -0.00001   0.00000  -0.00002  -0.00002   2.07918
   R16        2.79054   0.00001   0.00000   0.00003   0.00003   2.79056
   R17        2.07894  -0.00001   0.00000  -0.00002  -0.00002   2.07892
   R18        2.54816   0.00000   0.00000   0.00000   0.00000   2.54816
   R19        2.07944  -0.00001   0.00000  -0.00003  -0.00003   2.07941
   R20        2.07274  -0.00001   0.00000  -0.00001  -0.00001   2.07273
   R21        2.07154   0.00001   0.00000   0.00004   0.00004   2.07158
    A1        2.12360   0.00001   0.00000   0.00005   0.00005   2.12366
    A2        2.12636  -0.00001   0.00000  -0.00007  -0.00007   2.12629
    A3        2.03322   0.00000   0.00000   0.00001   0.00001   2.03324
    A4        2.16512   0.00002   0.00000   0.00010   0.00010   2.16523
    A5        2.09059  -0.00002   0.00000  -0.00013  -0.00013   2.09046
    A6        2.02747   0.00000   0.00000   0.00003   0.00003   2.02750
    A7        2.16053   0.00001   0.00000   0.00005   0.00005   2.16057
    A8        2.03737   0.00000   0.00000   0.00000   0.00000   2.03737
    A9        2.08529  -0.00001   0.00000  -0.00005  -0.00005   2.08524
   A10        2.16359   0.00001   0.00000   0.00005   0.00005   2.16364
   A11        2.08175  -0.00001   0.00000  -0.00005  -0.00005   2.08171
   A12        2.03784   0.00000   0.00000   0.00000   0.00000   2.03784
   A13        2.16243   0.00001   0.00000   0.00005   0.00005   2.16248
   A14        2.03901   0.00000   0.00000   0.00001   0.00001   2.03902
   A15        2.08175  -0.00001   0.00000  -0.00006  -0.00006   2.08169
   A16        2.16243   0.00001   0.00000   0.00005   0.00005   2.16248
   A17        2.08175  -0.00001   0.00000  -0.00006  -0.00006   2.08169
   A18        2.03901   0.00000   0.00000   0.00001   0.00001   2.03902
   A19        2.16359   0.00001   0.00000   0.00005   0.00005   2.16364
   A20        2.03784   0.00000   0.00000   0.00000   0.00000   2.03784
   A21        2.08175  -0.00001   0.00000  -0.00005  -0.00005   2.08171
   A22        2.16053   0.00001   0.00000   0.00005   0.00005   2.16057
   A23        2.08529  -0.00001   0.00000  -0.00005  -0.00005   2.08524
   A24        2.03737   0.00000   0.00000   0.00000   0.00000   2.03737
   A25        2.16512   0.00002   0.00000   0.00010   0.00010   2.16523
   A26        2.02747   0.00000   0.00000   0.00003   0.00003   2.02750
   A27        2.09059  -0.00002   0.00000  -0.00013  -0.00013   2.09046
   A28        2.12360   0.00001   0.00000   0.00005   0.00005   2.12366
   A29        2.12636  -0.00001   0.00000  -0.00007  -0.00007   2.12629
   A30        2.03322   0.00000   0.00000   0.00001   0.00001   2.03324
    D1        0.00000   0.00000   0.00000   0.00000   0.00000   0.00000
    D2        3.14159   0.00000   0.00000   0.00000   0.00000   3.14159
    D3        3.14159   0.00000   0.00000   0.00000   0.00000   3.14159
    D4        0.00000   0.00000   0.00000   0.00000   0.00000   0.00000
    D5        3.14159   0.00000   0.00000   0.00000   0.00000   3.14159
    D6        0.00000   0.00000   0.00000   0.00000   0.00000   0.00000
    D7        0.00000   0.00000   0.00000   0.00000   0.00000   0.00000
    D8        3.14159   0.00000   0.00000   0.00000   0.00000   3.14159
    D9        3.14159   0.00000   0.00000   0.00000   0.00000   3.14159
   D10        0.00000   0.00000   0.00000   0.00000   0.00000   0.00000
   D11        0.00000   0.00000   0.00000   0.00000   0.00000   0.00000
   D12        3.14159   0.00000   0.00000   0.00000   0.00000   3.14159
   D13        3.14159   0.00000   0.00000   0.00000   0.00000   3.14159
   D14        0.00000   0.00000   0.00000   0.00000   0.00000   0.00000
   D15        0.00000   0.00000   0.00000   0.00000   0.00000   0.00000
   D16        3.14159   0.00000   0.00000   0.00000   0.00000   3.14159
   D17        3.14159   0.00000   0.00000   0.00000   0.00000   3.14159
   D18        0.00000   0.00000   0.00000   0.00000   0.00000   0.00000
   D19        0.00000   0.00000   0.00000   0.00000   0.00000   0.00000
   D20        3.14159   0.00000   0.00000   0.00000   0.00000   3.14159
   D21        3.14159   0.00000   0.00000   0.00000   0.00000   3.14159
   D22        0.00000   0.00000   0.00000   0.00000   0.00000   0.00000
   D23        0.00000   0.00000   0.00000   0.00000   0.00000   0.00000
   D24        3.14159   0.00000   0.00000   0.00000   0.00000   3.14159
   D25        3.14159   0.00000   0.00000   0.00000   0.00000   3.14159
   D26        0.00000   0.00000   0.00000   0.00000   0.00000   0.00000
   D27        0.00000   0.00000   0.00000   0.00000   0.00000   0.00000
   D28        3.14159   0.00000   0.00000   0.00000   0.00000   3.14159
   D29        3.14159   0.00000   0.00000   0.00000   0.00000   3.14159
   D30        0.00000   0.00000   0.00000   0.00000   0.00000   0.00000
   D31        0.00000   0.00000   0.00000   0.00000   0.00000   0.00000
   D32        3.14159   0.00000   0.00000   0.00000   0.00000   3.14159
   D33        0.00000   0.00000   0.00000   0.00000   0.00000   0.00000
   D34        3.14159   0.00000   0.00000   0.00000   0.00000  -3.14159
   D35        3.14159   0.00000   0.00000   0.00000   0.00000   3.14159
   D36        0.00000   0.00000   0.00000   0.00000   0.00000   0.00000
         Item               Value     Threshold  Converged?
 Maximum Force            0.000025     0.000015     NO 
 RMS     Force            0.000008     0.000010     YES
 Maximum Displacement     0.000441     0.000060     NO 
 RMS     Displacement     0.000126     0.000040     NO 
 Predicted change in Energy=-1.217315D-08
 GradGradGradGradGradGradGradGradGradGradGradGradGradGradGradGradGradGrad

                          Input orientation:                          
 ---------------------------------------------------------------------
 Center     Atomic      Atomic             Coordinates (Angstroms)
 Number     Number       Type             X           Y           Z
 ---------------------------------------------------------------------
      1          6           0        1.120588   -0.275470   -0.287345
      2          6           0        1.727136    0.543917   -1.169931
      3          6           0        3.188858    0.738590   -1.248159
      4          6           0        3.796816    1.569118   -2.143426
      5          6           0        5.248327    1.765403   -2.224529
      6          6           0        5.856044    2.597937   -3.122129
      7          6           0        7.307555    2.794223   -3.203233
      8          6           0        7.915513    3.624750   -4.098500
      9          6           0        9.377235    3.819424   -4.176728
     10          6           0        9.983783    4.638811   -5.059314
     11          1           0        1.692946   -0.860370    0.442969
     12          1           0        0.030915   -0.392381   -0.261501
     13          1           0        1.122182    1.116318   -1.889112
     14          1           0        3.802682    0.170725   -0.533314
     15          1           0        3.179705    2.135466   -2.856854
     16          1           0        5.866457    1.199632   -1.511663
     17          1           0        5.237914    3.163709   -3.834995
     18          1           0        7.924667    2.227875   -2.489805
     19          1           0        7.301688    4.192616   -4.813345
     20          1           0        9.982189    3.247024   -3.457548
     21          1           0        9.411424    5.223711   -5.789629
     22          1           0       11.073455    4.755722   -5.085159
 ---------------------------------------------------------------------
                    Distance matrix (angstroms):
                    1          2          3          4          5
     1  C    0.000000
     2  C    1.348427   0.000000
     3  C    2.495842   1.476702   0.000000
     4  C    3.742958   2.506452   1.364144   0.000000
     5  C    4.995606   3.873369   2.499811   1.466966   0.000000
     6  C    6.222301   5.007790   3.752708   2.501350   1.366792
     7  C    7.496932   6.351321   5.001160   3.866441   2.501350
     8  C    8.712498   7.507600   6.228613   5.001160   3.752708
     9  C   10.003384   8.848378   7.507600   6.351321   5.007790
    10  C   11.201700  10.003383   8.712498   7.496932   6.222301
    11  H    1.096841   2.138841   2.766649   4.125302   5.162458
    12  H    1.096231   2.139875   3.496455   4.644473   5.977533
    13  H    2.121964   1.100378   2.196508   2.724586   4.190332
    14  H    2.730059   2.202827   1.100116   2.132604   2.737352
    15  H    4.081048   2.736548   2.130550   1.100253   2.194534
    16  H    5.118414   4.204845   2.729749   2.195236   1.100164
    17  H    6.431652   5.127518   4.095308   2.735122   2.132831
    18  H    7.577140   6.556460   5.117376   4.194412   2.728928
    19  H    8.868736   7.593622   6.446411   5.127898   4.099954
    20  H   10.049185   8.982532   7.571194   6.542257   5.111260
    21  H   11.368997  10.113870   8.914122   7.627233   6.480834
    22  H   12.140490  10.973696   9.645039   8.470993   7.145441
                    6          7          8          9         10
     6  C    0.000000
     7  C    1.466966   0.000000
     8  C    2.499811   1.364144   0.000000
     9  C    3.873369   2.506452   1.476702   0.000000
    10  C    4.995606   3.742958   2.495842   1.348427   0.000000
    11  H    6.480834   7.627233   8.914123  10.113871  11.368997
    12  H    7.145441   8.470993   9.645039  10.973696  12.140489
    13  H    5.111260   6.542257   7.571193   8.982531  10.049185
    14  H    4.099954   5.127899   6.446411   7.593623   8.868736
    15  H    2.728927   4.194412   5.117375   6.556460   7.577140
    16  H    2.132831   2.735122   4.095308   5.127518   6.431653
    17  H    1.100164   2.195236   2.729749   4.204845   5.118413
    18  H    2.194534   1.100253   2.130550   2.736548   4.081048
    19  H    2.737352   2.132604   1.100116   2.202827   2.730059
    20  H    4.190332   2.724586   2.196508   1.100378   2.121964
    21  H    5.162457   4.125302   2.766649   2.138841   1.096841
    22  H    5.977533   4.644473   3.496455   2.139875   1.096231
                   11         12         13         14         15
    11  H    0.000000
    12  H    1.864843   0.000000
    13  H    3.109930   2.473085   0.000000
    14  H    2.543084   3.823245   3.149193   0.000000
    15  H    4.698332   4.800077   2.491704   3.105986   0.000000
    16  H    5.048009   6.176647   4.759995   2.504992   3.147056
    17  H    6.860101   7.247653   4.991745   4.681767   2.500054
    18  H    7.548031   8.610598   6.918828   5.005045   4.760035
    19  H    9.198886   9.726542   7.496735   6.836469   5.005044
    20  H   10.039735  11.067422   9.246600   7.496736   6.918828
    21  H   11.637707  12.251312  10.039733   9.198886   7.548030
    22  H   12.251312  13.103753  11.067421   9.726543   8.610597
                   16         17         18         19         20
    16  H    0.000000
    17  H    3.106531   0.000000
    18  H    2.500054   3.147056   0.000000
    19  H    4.681767   2.504991   3.105986   0.000000
    20  H    4.991746   4.759995   2.491704   3.149193   0.000000
    21  H    6.860102   5.048008   4.698332   2.543084   3.109930
    22  H    7.247653   6.176646   4.800078   3.823245   2.473085
                   21         22
    21  H    0.000000
    22  H    1.864843   0.000000
 Stoichiometry    C10H12
 Framework group  CS[SG(C10H12)]
 Deg. of freedom    41
 Full point group                 CS      NOp   2
 Largest Abelian subgroup         CS      NOp   2
 Largest concise Abelian subgroup C1      NOp   1
                         Standard orientation:                         
 ---------------------------------------------------------------------
 Center     Atomic      Atomic             Coordinates (Angstroms)
 Number     Number       Type             X           Y           Z
 ---------------------------------------------------------------------
      1          6           0        0.305736   -5.592499    0.000000
      2          6           0       -0.343779   -4.410812    0.000000
      3          6           0        0.329984   -3.096775    0.000000
      4          6           0       -0.332658   -1.904384    0.000000
      5          6           0        0.332659   -0.596966    0.000000
      6          6           0       -0.332658    0.596966    0.000000
      7          6           0        0.332659    1.904384    0.000000
      8          6           0       -0.329984    3.096775    0.000000
      9          6           0        0.343779    4.410812    0.000000
     10          6           0       -0.305737    5.592499    0.000000
     11          1           0        1.401191   -5.647630    0.000000
     12          1           0       -0.232025   -6.547767    0.000000
     13          1           0       -1.443997   -4.392013    0.000000
     14          1           0        1.430071   -3.104710    0.000000
     15          1           0       -1.432904   -1.900334    0.000000
     16          1           0        1.432819   -0.599720    0.000000
     17          1           0       -1.432819    0.599720    0.000000
     18          1           0        1.432904    1.900334    0.000000
     19          1           0       -1.430071    3.104710    0.000000
     20          1           0        1.443996    4.392013    0.000000
     21          1           0       -1.401192    5.647629    0.000000
     22          1           0        0.232023    6.547767    0.000000
 ---------------------------------------------------------------------
 Rotational constants (GHZ):     15.1591427      0.2870392      0.2817051
 Standard basis: STO-3G (5D, 7F)
 There are    52 symmetry adapted cartesian basis functions of A'  symmetry.
 There are    10 symmetry adapted cartesian basis functions of A"  symmetry.
 There are    52 symmetry adapted basis functions of A'  symmetry.
 There are    10 symmetry adapted basis functions of A"  symmetry.
    62 basis functions,   186 primitive gaussians,    62 cartesian basis functions
    36 alpha electrons       36 beta electrons
       nuclear repulsion energy       406.7029711890 Hartrees.
 NAtoms=   22 NActive=   22 NUniq=   22 SFac= 1.00D+00 NAtFMM=   60 NAOKFM=F Big=F
 Integral buffers will be    131072 words long.
 Raffenetti 2 integral format.
 Two-electron integral symmetry is turned on.
 One-electron integrals computed using PRISM.
 NBasis=    62 RedAO= T EigKep=  2.74D-01  NBF=    52    10
 NBsUse=    62 1.00D-06 EigRej= -1.00D+00 NBFU=    52    10
 Initial guess from the checkpoint file:  "/data/trash/Gau-4103.chk"
 B after Tr=     0.000000    0.000000    0.000000
         Rot=    0.976800    0.000000    0.000000   -0.214152 Ang= -24.73 deg.
 Initial guess orbital symmetries:
       Occupied  (A') (A') (A') (A') (A') (A') (A') (A') (A') (A')
                 (A') (A') (A') (A') (A') (A') (A') (A') (A') (A')
                 (A') (A') (A') (A') (A') (A') (A') (A') (A') (A')
                 (A") (A') (A") (A") (A") (A")
       Virtual   (A') (A') (A') (A') (A') (A') (A') (A') (A') (A')
                 (A') (A') (A') (A') (A') (A') (A') (A') (A') (A')
                 (A') (A") (A") (A") (A") (A")
 Keep R1 ints in memory in symmetry-blocked form, NReq=3106776.
 Requested convergence on RMS density matrix=1.00D-08 within 128 cycles.
 Requested convergence on MAX density matrix=1.00D-06.
 Requested convergence on             energy=1.00D-06.
 No special actions if energy rises.
 SCF Done:  E(RB3LYP) =  -383.445422729     A.U. after    6 cycles
            NFock=  6  Conv=0.27D-08     -V/T= 2.0167
 Calling FoFJK, ICntrl=      2127 FMM=F ISym2X=1 I1Cent= 0 IOpClX= 0 NMat=1 NMatS=1 NMatT=0.
 ***** Axes restored to original set *****
 -------------------------------------------------------------------
 Center     Atomic                   Forces (Hartrees/Bohr)
 Number     Number              X              Y              Z
 -------------------------------------------------------------------
      1        6          -0.000011905   -0.000004606    0.000004114
      2        6          -0.000001494    0.000006630   -0.000007781
      3        6           0.000005616   -0.000004483    0.000005720
      4        6          -0.000003030    0.000003170   -0.000003951
      5        6           0.000003130   -0.000002903    0.000003654
      6        6          -0.000003131    0.000002904   -0.000003654
      7        6           0.000003031   -0.000003168    0.000003949
      8        6          -0.000005618    0.000004484   -0.000005721
      9        6           0.000001496   -0.000006625    0.000007775
     10        6           0.000011904    0.000004601   -0.000004108
     11        1           0.000006729   -0.000000539    0.000001292
     12        1           0.000016945    0.000000824    0.000000742
     13        1           0.000001737    0.000012987   -0.000014775
     14        1           0.000002805   -0.000004393    0.000005336
     15        1          -0.000006296    0.000005492   -0.000006950
     16        1           0.000004997   -0.000007279    0.000008877
     17        1          -0.000004998    0.000007278   -0.000008876
     18        1           0.000006294   -0.000005493    0.000006950
     19        1          -0.000002803    0.000004391   -0.000005334
     20        1          -0.000001738   -0.000012988    0.000014775
     21        1          -0.000006727    0.000000540   -0.000001293
     22        1          -0.000016944   -0.000000825   -0.000000741
 -------------------------------------------------------------------
 Cartesian Forces:  Max     0.000016945 RMS     0.000006727

 GradGradGradGradGradGradGradGradGradGradGradGradGradGradGradGradGradGrad
 Berny optimization.
 Using GEDIIS/GDIIS optimizer.
 FormGI is forming the generalized inverse of G from B-inverse, IUseBI=4.
 GSVD:  received Info=                   1 from GESDD.
 Internal  Forces:  Max     0.000028925 RMS     0.000010094
 Search for a local minimum.
 Step number   2 out of a maximum of   97
 All quantities printed in internal units (Hartrees-Bohrs-Radians)
 Mixed Optimization -- En-DIIS/RFO-DIIS
 Swapping is turned off.
 Update second derivatives using D2CorX and points    1    2
 DE=  1.54D-06 DEPred=-1.22D-08 R=-1.26D+02
 Trust test=-1.26D+02 RLast= 3.43D-04 DXMaxT set to 1.50D-01
 ITU= -1  0
     Eigenvalues ---    0.01074   0.01074   0.01203   0.01203   0.01838
     Eigenvalues ---    0.01838   0.01881   0.01881   0.01899   0.01899
     Eigenvalues ---    0.01951   0.01951   0.02528   0.02563   0.02563
     Eigenvalues ---    0.02771   0.02771   0.02771   0.02771   0.15451
     Eigenvalues ---    0.16000   0.16000   0.16000   0.16000   0.16000
     Eigenvalues ---    0.16000   0.16000   0.16000   0.16000   0.16000
     Eigenvalues ---    0.16571   0.21965   0.22000   0.22000   0.22000
     Eigenvalues ---    0.22000   0.22000   0.22000   0.28466   0.33634
     Eigenvalues ---    0.33639   0.33653   0.33655   0.33662   0.33665
     Eigenvalues ---    0.33668   0.33912   0.34033   0.34034   0.34105
     Eigenvalues ---    0.34658   0.34951   0.35784   0.36108   0.47715
     Eigenvalues ---    0.51732   0.52120   0.55302   0.55357   0.62716
 En-DIIS/RFO-DIIS IScMMF=        0 using points:     2    1
 RFO step:  Lambda=-1.17496086D-08.
 DidBck=T Rises=F RFO-DIIS coefs:    0.46372    0.53628
 Iteration  1 RMS(Cart)=  0.00007417 RMS(Int)=  0.00000001
 Iteration  2 RMS(Cart)=  0.00000001 RMS(Int)=  0.00000000
 ClnCor:  largest displacement from symmetrization is 3.30D-08 for atom    17.
 Variable       Old X    -DE/DX   Delta X   Delta X   Delta X     New X
                                 (Linear)    (Quad)   (Total)
    R1        2.54816   0.00000   0.00000   0.00000   0.00000   2.54816
    R2        2.07273   0.00001   0.00001   0.00000   0.00001   2.07274
    R3        2.07158  -0.00002  -0.00002   0.00000  -0.00002   2.07155
    R4        2.79056  -0.00002  -0.00001  -0.00001  -0.00002   2.79054
    R5        2.07941   0.00001   0.00002   0.00000   0.00002   2.07943
    R6        2.57786  -0.00001  -0.00001   0.00000  -0.00001   2.57785
    R7        2.07892   0.00001   0.00001   0.00000   0.00001   2.07893
    R8        2.77216  -0.00002  -0.00002   0.00000  -0.00002   2.77215
    R9        2.07918   0.00001   0.00001   0.00000   0.00001   2.07919
   R10        2.58286  -0.00001  -0.00001   0.00000  -0.00001   2.58285
   R11        2.07901   0.00001   0.00002   0.00000   0.00002   2.07902
   R12        2.77216  -0.00002  -0.00002   0.00000  -0.00002   2.77215
   R13        2.07901   0.00001   0.00002   0.00000   0.00002   2.07902
   R14        2.57786  -0.00001  -0.00001   0.00000  -0.00001   2.57785
   R15        2.07918   0.00001   0.00001   0.00000   0.00001   2.07919
   R16        2.79056  -0.00002  -0.00001  -0.00001  -0.00002   2.79054
   R17        2.07892   0.00001   0.00001   0.00000   0.00001   2.07893
   R18        2.54816   0.00000   0.00000   0.00000   0.00000   2.54816
   R19        2.07941   0.00001   0.00002   0.00000   0.00002   2.07943
   R20        2.07273   0.00001   0.00001   0.00000   0.00001   2.07274
   R21        2.07158  -0.00002  -0.00002   0.00000  -0.00002   2.07155
    A1        2.12366  -0.00001  -0.00003   0.00000  -0.00002   2.12363
    A2        2.12629   0.00001   0.00004  -0.00002   0.00002   2.12631
    A3        2.03324   0.00000  -0.00001   0.00001   0.00001   2.03324
    A4        2.16523  -0.00003  -0.00006   0.00000  -0.00006   2.16517
    A5        2.09046   0.00003   0.00007  -0.00001   0.00006   2.09052
    A6        2.02750   0.00000  -0.00002   0.00001  -0.00001   2.02750
    A7        2.16057  -0.00001  -0.00003   0.00000  -0.00003   2.16055
    A8        2.03737   0.00001   0.00000   0.00001   0.00001   2.03738
    A9        2.08524   0.00001   0.00003  -0.00001   0.00002   2.08525
   A10        2.16364  -0.00002  -0.00003  -0.00001  -0.00003   2.16360
   A11        2.08171   0.00001   0.00002  -0.00001   0.00002   2.08172
   A12        2.03784   0.00001   0.00000   0.00002   0.00002   2.03786
   A13        2.16248  -0.00001  -0.00003   0.00000  -0.00003   2.16245
   A14        2.03902   0.00001  -0.00001   0.00002   0.00001   2.03903
   A15        2.08169   0.00001   0.00003  -0.00001   0.00002   2.08171
   A16        2.16248  -0.00001  -0.00003   0.00000  -0.00003   2.16245
   A17        2.08169   0.00001   0.00003  -0.00001   0.00002   2.08171
   A18        2.03902   0.00001  -0.00001   0.00002   0.00001   2.03903
   A19        2.16364  -0.00002  -0.00003  -0.00001  -0.00003   2.16360
   A20        2.03784   0.00001   0.00000   0.00002   0.00002   2.03786
   A21        2.08171   0.00001   0.00002  -0.00001   0.00002   2.08172
   A22        2.16057  -0.00001  -0.00003   0.00000  -0.00003   2.16055
   A23        2.08524   0.00001   0.00003  -0.00001   0.00002   2.08525
   A24        2.03737   0.00001   0.00000   0.00001   0.00001   2.03738
   A25        2.16523  -0.00003  -0.00006   0.00000  -0.00006   2.16517
   A26        2.02750   0.00000  -0.00002   0.00001  -0.00001   2.02750
   A27        2.09046   0.00003   0.00007  -0.00001   0.00006   2.09052
   A28        2.12366  -0.00001  -0.00003   0.00000  -0.00002   2.12363
   A29        2.12629   0.00001   0.00004  -0.00002   0.00002   2.12631
   A30        2.03324   0.00000  -0.00001   0.00001   0.00001   2.03324
    D1        0.00000   0.00000   0.00000   0.00000   0.00000   0.00000
    D2        3.14159   0.00000   0.00000   0.00000   0.00000   3.14159
    D3        3.14159   0.00000   0.00000   0.00000   0.00000   3.14159
    D4        0.00000   0.00000   0.00000   0.00000   0.00000   0.00000
    D5        3.14159   0.00000   0.00000   0.00000   0.00000   3.14159
    D6        0.00000   0.00000   0.00000   0.00000   0.00000   0.00000
    D7        0.00000   0.00000   0.00000   0.00000   0.00000   0.00000
    D8       -3.14159   0.00000   0.00000   0.00000   0.00000   3.14159
    D9       -3.14159   0.00000   0.00000   0.00000   0.00000   3.14159
   D10        0.00000   0.00000   0.00000   0.00000   0.00000   0.00000
   D11        0.00000   0.00000   0.00000   0.00000   0.00000   0.00000
   D12        3.14159   0.00000   0.00000   0.00000   0.00000   3.14159
   D13        3.14159   0.00000   0.00000   0.00000   0.00000  -3.14159
   D14        0.00000   0.00000   0.00000   0.00000   0.00000   0.00000
   D15        0.00000   0.00000   0.00000   0.00000   0.00000   0.00000
   D16        3.14159   0.00000   0.00000   0.00000   0.00000   3.14159
   D17        3.14159   0.00000   0.00000   0.00000   0.00000   3.14159
   D18        0.00000   0.00000   0.00000   0.00000   0.00000   0.00000
   D19        0.00000   0.00000   0.00000   0.00000   0.00000   0.00000
   D20        3.14159   0.00000   0.00000   0.00000   0.00000   3.14159
   D21        3.14159   0.00000   0.00000   0.00000   0.00000   3.14159
   D22        0.00000   0.00000   0.00000   0.00000   0.00000   0.00000
   D23        0.00000   0.00000   0.00000   0.00000   0.00000   0.00000
   D24       -3.14159   0.00000   0.00000   0.00000   0.00000   3.14159
   D25        3.14159   0.00000   0.00000   0.00000   0.00000   3.14159
   D26        0.00000   0.00000   0.00000   0.00000   0.00000   0.00000
   D27        0.00000   0.00000   0.00000   0.00000   0.00000   0.00000
   D28        3.14159   0.00000   0.00000   0.00000   0.00000   3.14159
   D29        3.14159   0.00000   0.00000   0.00000   0.00000   3.14159
   D30        0.00000   0.00000   0.00000   0.00000   0.00000   0.00000
   D31        0.00000   0.00000   0.00000   0.00000   0.00000   0.00000
   D32        3.14159   0.00000   0.00000   0.00000   0.00000   3.14159
   D33        0.00000   0.00000   0.00000   0.00000   0.00000   0.00000
   D34        3.14159   0.00000   0.00000   0.00000   0.00000   3.14159
   D35        3.14159   0.00000   0.00000   0.00000   0.00000   3.14159
   D36        0.00000   0.00000   0.00000   0.00000   0.00000   0.00000
         Item               Value     Threshold  Converged?
 Maximum Force            0.000029     0.000015     NO 
 RMS     Force            0.000010     0.000010     NO 
 Maximum Displacement     0.000262     0.000060     NO 
 RMS     Displacement     0.000074     0.000040     NO 
 Predicted change in Energy=-7.893317D-09
 GradGradGradGradGradGradGradGradGradGradGradGradGradGradGradGradGradGrad

                          Input orientation:                          
 ---------------------------------------------------------------------
 Center     Atomic      Atomic             Coordinates (Angstroms)
 Number     Number       Type             X           Y           Z
 ---------------------------------------------------------------------
      1          6           0        1.120665   -0.275438   -0.287375
      2          6           0        1.727166    0.543964   -1.169982
      3          6           0        3.188881    0.738618   -1.248189
      4          6           0        3.796824    1.569144   -2.143456
      5          6           0        5.248330    1.765404   -2.224530
      6          6           0        5.856041    2.597936   -3.122129
      7          6           0        7.307547    2.794196   -3.203203
      8          6           0        7.915490    3.624722   -4.098470
      9          6           0        9.377205    3.819377   -4.176677
     10          6           0        9.983706    4.638779   -5.059284
     11          1           0        1.693084   -0.860312    0.442917
     12          1           0        0.031010   -0.392387   -0.261484
     13          1           0        1.122228    1.116380   -1.889179
     14          1           0        3.802701    0.170747   -0.533337
     15          1           0        3.179715    2.135500   -2.856892
     16          1           0        5.866450    1.199621   -1.511652
     17          1           0        5.237921    3.163720   -3.835007
     18          1           0        7.924656    2.227841   -2.489767
     19          1           0        7.301670    4.192594   -4.813322
     20          1           0        9.982143    3.246961   -3.457480
     21          1           0        9.411286    5.223653   -5.789576
     22          1           0       11.073361    4.755729   -5.085176
 ---------------------------------------------------------------------
                    Distance matrix (angstroms):
                    1          2          3          4          5
     1  C    0.000000
     2  C    1.348428   0.000000
     3  C    2.495795   1.476691   0.000000
     4  C    3.742906   2.506418   1.364138   0.000000
     5  C    4.995521   3.873317   2.499773   1.466956   0.000000
     6  C    6.222209   5.007723   3.752660   2.501317   1.366786
     7  C    7.496813   6.351235   5.001089   3.866392   2.501317
     8  C    8.712367   7.507494   6.228526   5.001088   3.752660
     9  C   10.003231   8.848257   7.507494   6.351235   5.007723
    10  C   11.201523  10.003231   8.712367   7.496813   6.222209
    11  H    1.096845   2.138831   2.766555   4.125204   5.162309
    12  H    1.096219   2.139876   3.496414   4.644436   5.977462
    13  H    2.122012   1.100388   2.196503   2.724540   4.190276
    14  H    2.729999   2.202828   1.100121   2.132612   2.737319
    15  H    4.081020   2.736521   2.130560   1.100260   2.194543
    16  H    5.118313   4.204795   2.729710   2.195239   1.100172
    17  H    6.431585   5.127463   4.095279   2.735100   2.132846
    18  H    7.577020   6.556383   5.117310   4.194378   2.728904
    19  H    8.868615   7.593519   6.446329   5.127828   4.099914
    20  H   10.049012   8.982399   7.571074   6.542163   5.111180
    21  H   11.368756  10.113646   8.913925   7.627044   6.480682
    22  H   12.140333  10.973562   9.644930   8.470892   7.145370
                    6          7          8          9         10
     6  C    0.000000
     7  C    1.466956   0.000000
     8  C    2.499773   1.364138   0.000000
     9  C    3.873317   2.506418   1.476691   0.000000
    10  C    4.995521   3.742906   2.495794   1.348428   0.000000
    11  H    6.480682   7.627044   8.913925  10.113647  11.368756
    12  H    7.145370   8.470892   9.644929  10.973562  12.140333
    13  H    5.111180   6.542162   7.571073   8.982398  10.049012
    14  H    4.099915   5.127828   6.446329   7.593519   8.868615
    15  H    2.728904   4.194378   5.117310   6.556383   7.577019
    16  H    2.132846   2.735100   4.095279   5.127463   6.431586
    17  H    1.100172   2.195239   2.729709   4.204795   5.118313
    18  H    2.194543   1.100260   2.130560   2.736522   4.081020
    19  H    2.737319   2.132612   1.100121   2.202828   2.729999
    20  H    4.190276   2.724540   2.196503   1.100388   2.122012
    21  H    5.162309   4.125204   2.766555   2.138831   1.096845
    22  H    5.977462   4.644436   3.496414   2.139876   1.096219
                   11         12         13         14         15
    11  H    0.000000
    12  H    1.864839   0.000000
    13  H    3.109961   2.473162   0.000000
    14  H    2.542958   3.823176   3.149200   0.000000
    15  H    4.698265   4.800073   2.491651   3.106006   0.000000
    16  H    5.047836   6.176551   4.759947   2.504944   3.147076
    17  H    6.859980   7.247613   4.991670   4.681749   2.500031
    18  H    7.547835   8.610488   6.918748   5.004975   4.760018
    19  H    9.198703   9.726448   7.496613   6.836397   5.004974
    20  H   10.039486  11.067263   9.246461   7.496614   6.918748
    21  H   11.637407  12.251094  10.039485   9.198703   7.547834
    22  H   12.251094  13.103611  11.067262   9.726449   8.610487
                   16         17         18         19         20
    16  H    0.000000
    17  H    3.106560   0.000000
    18  H    2.500031   3.147076   0.000000
    19  H    4.681749   2.504944   3.106006   0.000000
    20  H    4.991671   4.759947   2.491651   3.149200   0.000000
    21  H    6.859980   5.047835   4.698265   2.542958   3.109961
    22  H    7.247613   6.176550   4.800073   3.823176   2.473162
                   21         22
    21  H    0.000000
    22  H    1.864839   0.000000
 Stoichiometry    C10H12
 Framework group  CS[SG(C10H12)]
 Deg. of freedom    41
 Full point group                 CS      NOp   2
 Largest Abelian subgroup         CS      NOp   2
 Largest concise Abelian subgroup C1      NOp   1
                         Standard orientation:                         
 ---------------------------------------------------------------------
 Center     Atomic      Atomic             Coordinates (Angstroms)
 Number     Number       Type             X           Y           Z
 ---------------------------------------------------------------------
      1          6           0        0.305805   -5.592407    0.000000
      2          6           0       -0.343771   -4.410752    0.000000
      3          6           0        0.329997   -3.096730    0.000000
      4          6           0       -0.332666   -1.904358    0.000000
      5          6           0        0.332666   -0.596959    0.000000
      6          6           0       -0.332666    0.596959    0.000000
      7          6           0        0.332666    1.904358    0.000000
      8          6           0       -0.329997    3.096730    0.000000
      9          6           0        0.343771    4.410752    0.000000
     10          6           0       -0.305805    5.592407    0.000000
     11          1           0        1.401267   -5.647456    0.000000
     12          1           0       -0.231885   -6.547701    0.000000
     13          1           0       -1.443998   -4.391939    0.000000
     14          1           0        1.430090   -3.104662    0.000000
     15          1           0       -1.432919   -1.900312    0.000000
     16          1           0        1.432835   -0.599719    0.000000
     17          1           0       -1.432835    0.599719    0.000000
     18          1           0        1.432919    1.900312    0.000000
     19          1           0       -1.430090    3.104661    0.000000
     20          1           0        1.443998    4.391939    0.000000
     21          1           0       -1.401268    5.647456    0.000000
     22          1           0        0.231884    6.547701    0.000000
 ---------------------------------------------------------------------
 Rotational constants (GHZ):     15.1584436      0.2870480      0.2817134
 Standard basis: STO-3G (5D, 7F)
 There are    52 symmetry adapted cartesian basis functions of A'  symmetry.
 There are    10 symmetry adapted cartesian basis functions of A"  symmetry.
 There are    52 symmetry adapted basis functions of A'  symmetry.
 There are    10 symmetry adapted basis functions of A"  symmetry.
    62 basis functions,   186 primitive gaussians,    62 cartesian basis functions
    36 alpha electrons       36 beta electrons
       nuclear repulsion energy       406.7064681365 Hartrees.
 NAtoms=   22 NActive=   22 NUniq=   22 SFac= 1.00D+00 NAtFMM=   60 NAOKFM=F Big=F
 Integral buffers will be    131072 words long.
 Raffenetti 2 integral format.
 Two-electron integral symmetry is turned on.
 One-electron integrals computed using PRISM.
 NBasis=    62 RedAO= T EigKep=  2.74D-01  NBF=    52    10
 NBsUse=    62 1.00D-06 EigRej= -1.00D+00 NBFU=    52    10
 Initial guess from the checkpoint file:  "/data/trash/Gau-4103.chk"
 B after Tr=     0.000000    0.000000    0.000000
         Rot=    1.000000    0.000000    0.000000   -0.000004 Ang=   0.00 deg.
 Initial guess orbital symmetries:
       Occupied  (A') (A') (A') (A') (A') (A') (A') (A') (A') (A')
                 (A') (A') (A') (A') (A') (A') (A') (A') (A') (A')
                 (A') (A') (A') (A') (A') (A') (A') (A') (A') (A')
                 (A") (A') (A") (A") (A") (A")
       Virtual   (A') (A') (A') (A') (A') (A') (A') (A') (A') (A')
                 (A') (A') (A') (A') (A') (A') (A') (A') (A') (A')
                 (A') (A") (A") (A") (A") (A")
 Keep R1 ints in memory in symmetry-blocked form, NReq=3106776.
 Requested convergence on RMS density matrix=1.00D-08 within 128 cycles.
 Requested convergence on MAX density matrix=1.00D-06.
 Requested convergence on             energy=1.00D-06.
 No special actions if energy rises.
 SCF Done:  E(RB3LYP) =  -383.445422740     A.U. after    5 cycles
            NFock=  5  Conv=0.66D-08     -V/T= 2.0167
 Calling FoFJK, ICntrl=      2127 FMM=F ISym2X=1 I1Cent= 0 IOpClX= 0 NMat=1 NMatS=1 NMatT=0.
 ***** Axes restored to original set *****
 -------------------------------------------------------------------
 Center     Atomic                   Forces (Hartrees/Bohr)
 Number     Number              X              Y              Z
 -------------------------------------------------------------------
      1        6          -0.000006741   -0.000002963    0.000002738
      2        6          -0.000006026    0.000004474   -0.000005750
      3        6           0.000004715   -0.000005062    0.000006296
      4        6          -0.000002447    0.000004116   -0.000004981
      5        6           0.000002817   -0.000003459    0.000004262
      6        6          -0.000002818    0.000003459   -0.000004263
      7        6           0.000002448   -0.000004114    0.000004979
      8        6          -0.000004716    0.000005062   -0.000006296
      9        6           0.000006027   -0.000004470    0.000005747
     10        6           0.000006740    0.000002960   -0.000002735
     11        1           0.000004117    0.000000842   -0.000000558
     12        1           0.000007373   -0.000000213    0.000000980
     13        1           0.000002885    0.000006300   -0.000006963
     14        1           0.000000444   -0.000001478    0.000001746
     15        1          -0.000002354    0.000002021   -0.000002561
     16        1           0.000001321   -0.000002928    0.000003502
     17        1          -0.000001321    0.000002928   -0.000003502
     18        1           0.000002353   -0.000002021    0.000002561
     19        1          -0.000000443    0.000001477   -0.000001745
     20        1          -0.000002886   -0.000006300    0.000006964
     21        1          -0.000004117   -0.000000841    0.000000557
     22        1          -0.000007372    0.000000212   -0.000000980
 -------------------------------------------------------------------
 Cartesian Forces:  Max     0.000007373 RMS     0.000004039

 GradGradGradGradGradGradGradGradGradGradGradGradGradGradGradGradGradGrad
 Berny optimization.
 Using GEDIIS/GDIIS optimizer.
 FormGI is forming the generalized inverse of G from B-inverse, IUseBI=4.
 GSVD:  received Info=                   1 from GESDD.
 Internal  Forces:  Max     0.000017389 RMS     0.000005038
 Search for a local minimum.
 Step number   3 out of a maximum of   97
 All quantities printed in internal units (Hartrees-Bohrs-Radians)
 Mixed Optimization -- En-DIIS/RFO-DIIS
 Swapping is turned off.
 Update second derivatives using D2CorX and points    1    2    3
 DE= -1.10D-08 DEPred=-7.89D-09 R= 1.40D+00
 Trust test= 1.40D+00 RLast= 1.74D-04 DXMaxT set to 1.50D-01
 ITU=  0 -1  0
     Eigenvalues ---    0.01074   0.01074   0.01203   0.01203   0.01838
     Eigenvalues ---    0.01838   0.01881   0.01881   0.01899   0.01899
     Eigenvalues ---    0.01951   0.01951   0.02528   0.02563   0.02563
     Eigenvalues ---    0.02771   0.02771   0.02771   0.02771   0.14181
     Eigenvalues ---    0.14829   0.16000   0.16000   0.16000   0.16000
     Eigenvalues ---    0.16000   0.16000   0.16000   0.16000   0.16000
     Eigenvalues ---    0.16127   0.20463   0.21952   0.22000   0.22000
     Eigenvalues ---    0.22000   0.22000   0.22000   0.23076   0.33600
     Eigenvalues ---    0.33639   0.33653   0.33655   0.33662   0.33662
     Eigenvalues ---    0.33668   0.33921   0.34018   0.34033   0.34105
     Eigenvalues ---    0.34369   0.34951   0.35702   0.36108   0.40935
     Eigenvalues ---    0.51728   0.52120   0.55222   0.55357   0.57388
 En-DIIS/RFO-DIIS IScMMF=        0 using points:     3    2    1
 RFO step:  Lambda= 0.00000000D+00.
 DidBck=T Rises=F RFO-DIIS coefs:    0.60736   -0.00197    0.39461
[...]
      5          6           0        5.248203    1.765445   -2.224589
      6          6           0        5.856168    2.597896   -3.122070
      7          6           0        7.307682    2.794103   -3.203082
      8          6           0        7.915733    3.624590   -4.098294
      9          6           0        9.377407    3.819398   -4.176682
     10          6           0        9.983681    4.638871   -5.059393
     11          1           0        1.693271   -0.860338    0.442965
     12          1           0        0.031049   -0.392589   -0.261248
     13          1           0        1.121741    1.116225   -1.889049
     14          1           0        3.802462    0.170876   -0.533509
     15          1           0        3.179638    2.135627   -2.857045
     16          1           0        5.866176    1.199580   -1.511633
     17          1           0        5.238195    3.163760   -3.835026
     18          1           0        7.924733    2.227714   -2.489614
     19          1           0        7.301909    4.192465   -4.813150
     20          1           0        9.982630    3.247116   -3.457610
     21          1           0        9.411100    5.223679   -5.789624
     22          1           0       11.073322    4.755930   -5.085411
 ---------------------------------------------------------------------
                    Distance matrix (angstroms):
                    1          2          3          4          5
     1  C    0.000000
     2  C    1.348437   0.000000
     3  C    2.495774   1.476681   0.000000
     4  C    3.742997   2.506569   1.364126   0.000000
     5  C    4.995514   3.873422   2.499784   1.466954   0.000000
     6  C    6.222334   5.007965   3.752720   2.501408   1.366773
     7  C    7.496899   6.351468   5.001191   3.866512   2.501408
     8  C    8.712490   7.507748   6.228610   5.001191   3.752720
     9  C   10.003468   8.848625   7.507748   6.351468   5.007965
    10  C   11.201658  10.003468   8.712490   7.496899   6.222334
    11  H    1.096854   2.138860   2.766551   4.125216   5.162182
    12  H    1.096220   2.139862   3.496384   4.644564   5.977500
    13  H    2.121955   1.100394   2.196594   2.724950   4.190675
    14  H    2.729801   2.202717   1.100128   2.132550   2.737256
    15  H    4.081263   2.736772   2.130539   1.100266   2.194537
    16  H    5.118072   4.204719   2.729630   2.195171   1.100182
    17  H    6.431887   5.127834   4.095384   2.735223   2.132814
    18  H    7.577042   6.556589   5.117451   4.194529   2.729055
    19  H    8.868713   7.593710   6.446304   5.127817   4.099852
    20  H   10.049581   8.983119   7.571722   6.542769   5.111799
    21  H   11.368735  10.113704   8.913846   7.626940   6.480630
    22  H   12.140538  10.973872   9.645148   8.471055   7.145580
                    6          7          8          9         10
     6  C    0.000000
     7  C    1.466954   0.000000
     8  C    2.499784   1.364126   0.000000
     9  C    3.873422   2.506569   1.476681   0.000000
    10  C    4.995514   3.742997   2.495774   1.348437   0.000000
    11  H    6.480630   7.626940   8.913846  10.113704  11.368735
    12  H    7.145580   8.471055   9.645148  10.973872  12.140538
    13  H    5.111799   6.542769   7.571722   8.983119  10.049581
    14  H    4.099852   5.127817   6.446304   7.593710   8.868713
    15  H    2.729055   4.194529   5.117451   6.556589   7.577042
    16  H    2.132814   2.735223   4.095384   5.127834   6.431887
    17  H    1.100182   2.195171   2.729630   4.204719   5.118072
    18  H    2.194537   1.100266   2.130539   2.736772   4.081263
    19  H    2.737256   2.132550   1.100128   2.202717   2.729801
    20  H    4.190675   2.724950   2.196594   1.100394   2.121955
    21  H    5.162182   4.125216   2.766551   2.138860   1.096854
    22  H    5.977500   4.644564   3.496384   2.139862   1.096220
                   11         12         13         14         15
    11  H    0.000000
    12  H    1.864856   0.000000
    13  H    3.109942   2.473028   0.000000
    14  H    2.542752   3.822980   3.149197   0.000000
    15  H    4.698421   4.800380   2.492215   3.105958   0.000000
    16  H    5.047460   6.176339   4.760152   2.504770   3.147030
    17  H    6.860107   7.248026   4.992437   4.681742   2.500233
    18  H    7.547662   8.610566   6.919305   5.005002   4.760190
    19  H    9.198608   9.726661   7.497206   6.836274   5.005002
    20  H   10.039877  11.067888   9.247509   7.497206   6.919305
    21  H   11.637238  12.251153  10.039877   9.198608   7.547662
    22  H   12.251153  13.103877  11.067888   9.726661   8.610566
                   16         17         18         19         20
    16  H    0.000000
    17  H    3.106529   0.000000
    18  H    2.500233   3.147030   0.000000
    19  H    4.681742   2.504770   3.105958   0.000000
    20  H    4.992437   4.760152   2.492215   3.149197   0.000000
    21  H    6.860107   5.047460   4.698421   2.542752   3.109942
    22  H    7.248026   6.176339   4.800380   3.822980   2.473028
                   21         22
    21  H    0.000000
    22  H    1.864856   0.000000
 Stoichiometry    C10H12
 Framework group  C2H[SGH(C10H12)]
 Deg. of freedom    21
 Full point group                 C2H     NOp   4
 Largest Abelian subgroup         C2H     NOp   4
 Largest concise Abelian subgroup C2      NOp   2
                         Standard orientation:                         
 ---------------------------------------------------------------------
 Center     Atomic      Atomic             Coordinates (Angstroms)
 Number     Number       Type             X           Y           Z
 ---------------------------------------------------------------------
      1          6           0       -2.448794   -5.037131    0.000000
      2          6           0       -2.442945   -3.688707    0.000000
      3          6           0       -1.215916   -2.867132    0.000000
      4          6           0       -1.215916   -1.503006    0.000000
      5          6           0        0.000709   -0.683386    0.000000
      6          6           0       -0.000709    0.683386    0.000000
      7          6           0        1.215916    1.503006    0.000000
      8          6           0        1.215916    2.867132    0.000000
      9          6           0        2.442945    3.688707    0.000000
     10          6           0        2.448794    5.037131    0.000000
     11          1           0       -1.517850   -5.617158    0.000000
     12          1           0       -3.382697   -5.611173    0.000000
     13          1           0       -3.395723   -3.138179    0.000000
     14          1           0       -0.258139   -3.408375    0.000000
     15          1           0       -2.175683   -0.965016    0.000000
     16          1           0        0.960976   -1.220310    0.000000
     17          1           0       -0.960976    1.220310    0.000000
     18          1           0        2.175683    0.965016    0.000000
     19          1           0        0.258139    3.408375    0.000000
     20          1           0        3.395723    3.138179    0.000000
     21          1           0        1.517850    5.617158    0.000000
     22          1           0        3.382697    5.611173    0.000000
 ---------------------------------------------------------------------
 Rotational constants (GHZ):     15.1582669      0.2870350      0.2817008

 **********************************************************************

            Population analysis using the SCF density.

 **********************************************************************

 Orbital symmetries:
       Occupied  (BU) (AG) (BU) (AG) (BU) (AG) (BU) (AG) (AG) (BU)
                 (AG) (BU) (AG) (BU) (AG) (BU) (AG) (BU) (AG) (BU)
                 (BU) (AG) (BU) (AG) (AG) (BU) (BU) (AG) (AG) (BU)
                 (AU) (AG) (BG) (AU) (BG) (AU)
       Virtual   (BG) (AU) (BG) (AU) (BG) (BU) (AG) (BU) (BU) (AG)
                 (AG) (BU) (BU) (AG) (AG) (BU) (BU) (AG) (AG) (BU)
                 (BU) (AG) (AG) (BU) (AG) (BU)
 The electronic state is 1-AG.
 Alpha  occ. eigenvalues --  -10.00819 -10.00819 -10.00737 -10.00714 -10.00649
 Alpha  occ. eigenvalues --  -10.00618 -10.00560 -10.00558  -9.99154  -9.99154
 Alpha  occ. eigenvalues --   -0.77698  -0.76048  -0.73466  -0.70051  -0.66071
 Alpha  occ. eigenvalues --   -0.58624  -0.54018  -0.52374  -0.51117  -0.50660
 Alpha  occ. eigenvalues --   -0.43778  -0.43255  -0.40493  -0.40003  -0.36754
 Alpha  occ. eigenvalues --   -0.35762  -0.33812  -0.32951  -0.31938  -0.30630
 Alpha  occ. eigenvalues --   -0.29533  -0.29411  -0.27246  -0.23589  -0.18681
 Alpha  occ. eigenvalues --   -0.12996
 Alpha virt. eigenvalues --    0.01315   0.07957   0.14332   0.19495   0.22821
 Alpha virt. eigenvalues --    0.31448   0.35153   0.38981   0.41049   0.41451
 Alpha virt. eigenvalues --    0.42508   0.42746   0.43053   0.43077   0.43161
 Alpha virt. eigenvalues --    0.43814   0.53444   0.53624   0.58440   0.60471
 Alpha virt. eigenvalues --    0.64321   0.66442   0.68874   0.72090   0.75701
 Alpha virt. eigenvalues --    0.77639
          Condensed to atoms (all electrons):
               1          2          3          4          5          6
     1  C    4.856139   0.579871  -0.027587   0.000685  -0.000006   0.000000
     2  C    0.579871   4.790141   0.425816  -0.026656   0.000812  -0.000006
     3  C   -0.027587   0.425816   4.818268   0.559194  -0.026940   0.000692
     4  C    0.000685  -0.026656   0.559194   4.809524   0.435578  -0.026911
     5  C   -0.000006   0.000812  -0.026940   0.435578   4.812595   0.555464
     6  C    0.000000  -0.000006   0.000692  -0.026911   0.555464   4.812595
     7  C    0.000000   0.000000  -0.000006   0.000814  -0.026911   0.435578
     8  C    0.000000   0.000000   0.000000  -0.000006   0.000692  -0.026940
     9  C    0.000000   0.000000   0.000000   0.000000  -0.000006   0.000812
    10  C    0.000000   0.000000   0.000000   0.000000   0.000000  -0.000006
    11  H    0.386162  -0.024412  -0.004212   0.000025  -0.000001   0.000000
    12  H    0.388065  -0.023838   0.001413  -0.000019   0.000000   0.000000
    13  H   -0.026797   0.385301  -0.025296  -0.003224   0.000003   0.000000
    14  H   -0.003079  -0.024623   0.384226  -0.026635  -0.004171   0.000025
    15  H    0.000027  -0.004220  -0.026737   0.384317  -0.024928  -0.003267
    16  H    0.000000   0.000004  -0.003252  -0.024877   0.384344  -0.026643
    17  H    0.000000  -0.000001   0.000025  -0.004179  -0.026643   0.384344
    18  H    0.000000   0.000000   0.000000   0.000004  -0.003267  -0.024928
    19  H    0.000000   0.000000   0.000000  -0.000001   0.000025  -0.004171
    20  H    0.000000   0.000000   0.000000   0.000000   0.000000   0.000003
    21  H    0.000000   0.000000   0.000000   0.000000   0.000000  -0.000001
    22  H    0.000000   0.000000   0.000000   0.000000   0.000000   0.000000
               7          8          9         10         11         12
     1  C    0.000000   0.000000   0.000000   0.000000   0.386162   0.388065
     2  C    0.000000   0.000000   0.000000   0.000000  -0.024412  -0.023838
     3  C   -0.000006   0.000000   0.000000   0.000000  -0.004212   0.001413
     4  C    0.000814  -0.000006   0.000000   0.000000   0.000025  -0.000019
     5  C   -0.026911   0.000692  -0.000006   0.000000  -0.000001   0.000000
     6  C    0.435578  -0.026940   0.000812  -0.000006   0.000000   0.000000
     7  C    4.809524   0.559194  -0.026656   0.000685   0.000000   0.000000
     8  C    0.559194   4.818268   0.425816  -0.027587   0.000000   0.000000
     9  C   -0.026656   0.425816   4.790141   0.579871   0.000000   0.000000
    10  C    0.000685  -0.027587   0.579871   4.856139   0.000000   0.000000
    11  H    0.000000   0.000000   0.000000   0.000000   0.586679  -0.023570
    12  H    0.000000   0.000000   0.000000   0.000000  -0.023570   0.584212
    13  H    0.000000   0.000000   0.000000   0.000000   0.002006  -0.004633
    14  H   -0.000001   0.000000   0.000000   0.000000   0.000954   0.000000
    15  H    0.000004   0.000000   0.000000   0.000000   0.000001  -0.000001
    16  H   -0.004179   0.000025  -0.000001   0.000000   0.000000   0.000000
    17  H   -0.024877  -0.003252   0.000004   0.000000   0.000000   0.000000
    18  H    0.384317  -0.026737  -0.004220   0.000027   0.000000   0.000000
    19  H   -0.026635   0.384226  -0.024623  -0.003079   0.000000   0.000000
    20  H   -0.003224  -0.025296   0.385301  -0.026797   0.000000   0.000000
    21  H    0.000025  -0.004212  -0.024412   0.386162   0.000000   0.000000
    22  H   -0.000019   0.001413  -0.023838   0.388065   0.000000   0.000000
              13         14         15         16         17         18
     1  C   -0.026797  -0.003079   0.000027   0.000000   0.000000   0.000000
     2  C    0.385301  -0.024623  -0.004220   0.000004  -0.000001   0.000000
     3  C   -0.025296   0.384226  -0.026737  -0.003252   0.000025   0.000000
     4  C   -0.003224  -0.026635   0.384317  -0.024877  -0.004179   0.000004
     5  C    0.000003  -0.004171  -0.024928   0.384344  -0.026643  -0.003267
     6  C    0.000000   0.000025  -0.003267  -0.026643   0.384344  -0.024928
     7  C    0.000000  -0.000001   0.000004  -0.004179  -0.024877   0.384317
     8  C    0.000000   0.000000   0.000000   0.000025  -0.003252  -0.026737
     9  C    0.000000   0.000000   0.000000  -0.000001   0.000004  -0.004220
    10  C    0.000000   0.000000   0.000000   0.000000   0.000000   0.000027
    11  H    0.002006   0.000954   0.000001   0.000000   0.000000   0.000000
    12  H   -0.004633   0.000000  -0.000001   0.000000   0.000000   0.000000
    13  H    0.592558   0.001553   0.001015   0.000000   0.000000   0.000000
    14  H    0.001553   0.592454   0.001974   0.000977   0.000001   0.000000
    15  H    0.001015   0.001974   0.592797   0.001575   0.000983   0.000000
    16  H    0.000000   0.000977   0.001575   0.592590   0.001965   0.000983
    17  H    0.000000   0.000001   0.000983   0.001965   0.592590   0.001575
    18  H    0.000000   0.000000   0.000000   0.000983   0.001575   0.592797
    19  H    0.000000   0.000000   0.000000   0.000001   0.000977   0.001974
    20  H    0.000000   0.000000   0.000000   0.000000   0.000000   0.001015
    21  H    0.000000   0.000000   0.000000   0.000000   0.000000   0.000001
    22  H    0.000000   0.000000   0.000000   0.000000   0.000000  -0.000001
              19         20         21         22
     1  C    0.000000   0.000000   0.000000   0.000000
     2  C    0.000000   0.000000   0.000000   0.000000
     3  C    0.000000   0.000000   0.000000   0.000000
     4  C   -0.000001   0.000000   0.000000   0.000000
     5  C    0.000025   0.000000   0.000000   0.000000
     6  C   -0.004171   0.000003  -0.000001   0.000000
     7  C   -0.026635  -0.003224   0.000025  -0.000019
     8  C    0.384226  -0.025296  -0.004212   0.001413
     9  C   -0.024623   0.385301  -0.024412  -0.023838
    10  C   -0.003079  -0.026797   0.386162   0.388065
    11  H    0.000000   0.000000   0.000000   0.000000
    12  H    0.000000   0.000000   0.000000   0.000000
    13  H    0.000000   0.000000   0.000000   0.000000
    14  H    0.000000   0.000000   0.000000   0.000000
    15  H    0.000000   0.000000   0.000000   0.000000
    16  H    0.000001   0.000000   0.000000   0.000000
    17  H    0.000977   0.000000   0.000000   0.000000
    18  H    0.001974   0.001015   0.000001  -0.000001
    19  H    0.592454   0.001553   0.000954   0.000000
    20  H    0.001553   0.592558   0.002006  -0.004633
    21  H    0.000954   0.002006   0.586679  -0.023570
    22  H    0.000000  -0.004633  -0.023570   0.584212
 Mulliken charges:
               1
     1  C   -0.153481
     2  C   -0.078188
     3  C   -0.075604
     4  C   -0.077634
     5  C   -0.076641
     6  C   -0.076641
     7  C   -0.077634
     8  C   -0.075604
     9  C   -0.078188
    10  C   -0.153481
    11  H    0.076367
    12  H    0.078371
    13  H    0.077515
    14  H    0.076345
    15  H    0.076461
    16  H    0.076488
    17  H    0.076488
    18  H    0.076461
    19  H    0.076345
    20  H    0.077515
    21  H    0.076367
    22  H    0.078371
 Sum of Mulliken charges =   0.00000
 Mulliken charges with hydrogens summed into heavy atoms:
               1
     1  C    0.001258
     2  C   -0.000673
     3  C    0.000741
     4  C   -0.001173
     5  C   -0.000152
     6  C   -0.000152
     7  C   -0.001173
     8  C    0.000741
     9  C   -0.000673
    10  C    0.001258
 Electronic spatial extent (au):  <R**2>=           3743.2851
 Charge=              0.0000 electrons
 Dipole moment (field-independent basis, Debye):
    X=              0.0000    Y=              0.0000    Z=              0.0000  Tot=              0.0000
 Quadrupole moment (field-independent basis, Debye-Ang):
   XX=            -51.8797   YY=            -52.0533   ZZ=            -60.3896
   XY=             -0.3417   XZ=              0.0000   YZ=              0.0000
 Traceless Quadrupole moment (field-independent basis, Debye-Ang):
   XX=              2.8945   YY=              2.7209   ZZ=             -5.6154
   XY=             -0.3417   XZ=              0.0000   YZ=              0.0000
 Octapole moment (field-independent basis, Debye-Ang**2):
  XXX=              0.0000  YYY=              0.0000  ZZZ=              0.0000  XYY=              0.0000
  XXY=              0.0000  XXZ=              0.0000  XZZ=              0.0000  YZZ=              0.0000
  YYZ=              0.0000  XYZ=              0.0000
 Hexadecapole moment (field-independent basis, Debye-Ang**3):
 XXXX=          -1082.4201 YYYY=          -3428.1049 ZZZZ=            -48.9830 XXXY=           -867.0065
 XXXZ=              0.0000 YYYX=           -876.8226 YYYZ=              0.0000 ZZZX=              0.0000
 ZZZY=              0.0000 XXYY=           -741.3119 XXZZ=           -218.0086 YYZZ=           -664.5180
 XXYZ=              0.0000 YYXZ=              0.0000 ZZXY=           -336.0958
 N-N= 4.067018756714D+02 E-N=-1.700519799113D+03  KE= 3.771628577607D+02
 Symmetry AG   KE= 1.839716340320D+02
 Symmetry BG   KE= 4.989091728746D+00
 Symmetry AU   KE= 7.605676747717D+00
 Symmetry BU   KE= 1.805964552522D+02
 1\1\GINC-MW\FOpt\RB3LYP\STO-3G\C10H12\BING\25-Feb-2019\0\\# opt(tight)
  b3lyp/sto-3g\\c10h12\\0,1\C,1.1206900058,-0.2755300619,-0.2872663265\
 C,1.7269640251,0.5439425099,-1.1699773974\C,3.1886381992,0.7387504425,
 -1.2483654879\C,3.7966890135,1.5692377195,-2.143577033\C,5.2482028575,
 1.7654447059,-2.224589118\C,5.8561680511,2.5978961939,-3.1220699806\C,
 7.3076818951,2.7941031804,-3.2030820655\C,7.9157327094,3.6245904573,-4
 .0982936107\C,9.3774068835,3.8193983899,-4.1766817012\C,9.9836809028,4
 .6388709617,-5.0593927721\H,1.6932711873,-0.8603381323,0.4429652615\H,
 0.0310488149,-0.3925887107,-0.2612483011\H,1.1217410552,1.1162253233,-
 1.8890493214\H,3.8024617993,0.1708757677,-0.5335091665\H,3.1796383877,
 2.1356266429,-2.8570452422\H,5.8661755493,1.1995804398,-1.5116327855\H
 ,5.2381953594,3.16376046,-3.8350263131\H,7.924732521,2.2277142569,-2.4
 896138564\H,7.3019091094,4.1924651321,-4.8131499321\H,9.9826298535,3.2
 471155765,-3.4576097772\H,9.4110997213,5.2236790321,-5.78962436\H,11.0
 733220937,4.7559296105,-5.0854107975\\Version=ES64L-G09RevD.01\State=1
 -AG\HF=-383.4454201\RMSD=8.110e-09\RMSF=4.269e-07\Dipole=0.,0.,0.\Quad
 rupole=1.897178,-1.4088666,-0.4883114,0.1662816,0.4144283,-3.1670524\P
 G=C02H [SGH(C10H12)]\\@


 CHINESE FORTUNE COOKIE OF JAN 1 1967 SAY....
 ALL THINGS ARE DIFFICULT BEFORE THEY ARE EASY.
 WE LEARN SO LITTLE AND FORGET SO MUCH.
 YOU WILL OVERCOME OBSTACLES TO ACHIEVE SUCCESS.
 AH SO.
 Job cpu time:       0 days  0 hours  3 minutes 12.4 seconds.
 File lengths (MBytes):  RWF=      5 Int=      0 D2E=      0 Chk=      2 Scr=      1
 Normal termination of Gaussian 09 at Mon Feb 25 22:31:20 2019.
