 Entering Gaussian System, Link 0=g09
 Input=c10h22.com
 Output=c10h22.out
 Initial command:
 /home/bing/src/g09_d.01/g09/l1.exe "/data/trash/Gau-3579.inp" -scrdir="/data/trash/"
 Entering Link 1 = /home/bing/src/g09_d.01/g09/l1.exe PID=      3581.
  
 Copyright (c) 1988,1990,1992,1993,1995,1998,2003,2009,2013,
            Gaussian, Inc.  All Rights Reserved.
  
 This is part of the Gaussian(R) 09 program.  It is based on
 the Gaussian(R) 03 system (copyright 2003, Gaussian, Inc.),
 the Gaussian(R) 98 system (copyright 1998, Gaussian, Inc.),
 the Gaussian(R) 94 system (copyright 1995, Gaussian, Inc.),
 the Gaussian 92(TM) system (copyright 1992, Gaussian, Inc.),
 the Gaussian 90(TM) system (copyright 1990, Gaussian, Inc.),
 the Gaussian 88(TM) system (copyright 1988, Gaussian, Inc.),
 the Gaussian 86(TM) system (copyright 1986, Carnegie Mellon
 University), and the Gaussian 82(TM) system (copyright 1983,
 Carnegie Mellon University). Gaussian is a federally registered
 trademark of Gaussian, Inc.
  
 This software contains proprietary and confidential information,
 including trade secrets, belonging to Gaussian, Inc.
  
 This software is provided under written license and may be
 used, copied, transmitted, or stored only in accord with that
 written license.
  
 The following legend is applicable only to US Government
 contracts under FAR:
  
                    RESTRICTED RIGHTS LEGEND
  
 Use, reproduction and disclosure by the US Government is
 subject to restrictions as set forth in subparagraphs (a)
 and (c) of the Commercial Computer Software - Restricted
 Rights clause in FAR 52.227-19.
  
 Gaussian, Inc.
 340 Quinnipiac St., Bldg. 40, Wallingford CT 06492
  
  
 ---------------------------------------------------------------
 Warning -- This program may not be used in any manner that
 competes with the business of Gaussian, Inc. or will provide
 assistance to any competitor of Gaussian, Inc.  The licensee
 of this program is prohibited from giving any competitor of
 Gaussian, Inc. access to this program.  By using this program,
 the user acknowledges that Gaussian, Inc. is engaged in the
 business of creating and licensing software in the field of
 computational chemistry and represents and warrants to the
 licensee that it is not a competitor of Gaussian, Inc. and that
 it will not use this program in any manner prohibited above.
 ---------------------------------------------------------------
  

 Cite this work as:
 Gaussian 09, Revision D.01,
 M. J. Frisch, G. W. Trucks, H. B. Schlegel, G. E. Scuseria, 
 M. A. Robb, J. R. Cheeseman, G. Scalmani, V. Barone, B. Mennucci, 
 G. A. Petersson, H. Nakatsuji, M. Caricato, X. Li, H. P. Hratchian, 
 A. F. Izmaylov, J. Bloino, G. Zheng, J. L. Sonnenberg, M. Hada, 
 M. Ehara, K. Toyota, R. Fukuda, J. Hasegawa, M. Ishida, T. Nakajima, 
 Y. Honda, O. Kitao, H. Nakai, T. Vreven, J. A. Montgomery, Jr., 
 J. E. Peralta, F. Ogliaro, M. Bearpark, J. J. Heyd, E. Brothers, 
 K. N. Kudin, V. N. Staroverov, T. Keith, R. Kobayashi, J. Normand, 
 K. Raghavachari, A. Rendell, J. C. Burant, S. S. Iyengar, J. Tomasi, 
 M. Cossi, N. Rega, J. M. Millam, M. Klene, J. E. Knox, J. B. Cross, 
 V. Bakken, C. Adamo, J. Jaramillo, R. Gomperts, R. E. Stratmann, 
 O. Yazyev, A. J. Austin, R. Cammi, C. Pomelli, J. W. Ochterski, 
 R. L. Martin, K. Morokuma, V. G. Zakrzewski, G. A. Voth, 
 P. Salvador, J. J. Dannenberg, S. Dapprich, A. D. Daniels, 
 O. Farkas, J. B. Foresman, J. V. Ortiz, J. Cioslowski, 
 and D. J. Fox, Gaussian, Inc., Wallingford CT, 2013.
 
 ******************************************
 Gaussian 09:  ES64L-G09RevD.01 24-Apr-2013
                25-Feb-2019 
 ******************************************
 %nproc=6
 Will use up to    6 processors via shared memory.
 -------------------------
 # opt(tight) b3lyp/sto-3g
 -------------------------
 1/7=10,14=-1,18=20,19=15,26=3,38=1/1,3;
 2/9=110,12=2,17=6,18=5,40=1/2;
 3/6=3,11=2,16=1,25=1,30=1,71=1,74=-5/1,2,3;
 4//1;
 5/5=2,38=5/2;
 6/7=2,8=2,9=2,10=2,28=1/1;
 7//1,2,3,16;
 1/7=10,14=-1,18=20,19=15,26=3/3(2);
 2/9=110/2;
 99//99;
 2/9=110/2;
 3/6=3,11=2,16=1,25=1,30=1,71=1,74=-5/1,2,3;
 4/5=5,16=3,69=1/1;
 5/5=2,38=5/2;
 7//1,2,3,16;
 1/7=10,14=-1,18=20,19=15,26=3/3(-5);
 2/9=110/2;
 6/7=2,8=2,9=2,10=2,19=2,28=1/1;
 99/9=1/99;
 ------
 c10h22
 ------
 Symbolic Z-matrix:
 Charge =  0 Multiplicity = 1
 C                     0.27684  -1.33213  -2.34671 
 C                     0.70605  -2.69842  -1.73836 
 C                     1.98337  -2.57775  -0.84948 
 C                     2.41343  -3.9485   -0.23954 
 C                     3.69074  -3.82754   0.64928 
 C                     4.1208   -5.19842   1.25924 
 C                     5.39811  -5.07746   2.14806 
 C                     5.82818  -6.44821   2.75801 
 C                     7.10549  -6.32754   3.64688 
 C                     7.5347   -7.69383   4.25524 
 H                    -0.62498  -1.45021  -2.96704 
 H                     1.07848  -0.91858  -2.97771 
 H                     0.05582  -0.60449  -1.55078 
 H                     0.8972   -3.41803  -2.5536 
 H                    -0.12192  -3.10505  -1.13164 
 H                     1.7928   -1.85872  -0.03356 
 H                     2.81204  -2.17175  -1.4557 
 H                     2.60365  -4.66727  -1.05578 
 H                     1.5844   -4.35424   0.36638 
 H                     3.50051  -3.10877   1.4655 
 H                     4.51976  -3.42181   0.04334 
 H                     4.31104  -5.91719   0.44302 
 H                     3.29179  -5.60415   1.86518 
 H                     5.2079   -4.35869   2.96429 
 H                     6.22715  -4.67173   1.54214 
 H                     6.01873  -7.16725   1.94209 
 H                     4.9995   -6.85421   3.36423 
 H                     6.91435  -5.60792   4.46212 
 H                     7.93346  -5.92092   3.04015 
 H                     6.73305  -8.10739   4.88623 
 H                     8.4365   -7.57574   4.87559 
 H                     7.75574  -8.42147   3.45932 
 

 GradGradGradGradGradGradGradGradGradGradGradGradGradGradGradGradGradGrad
 Berny optimization.
 Initialization pass.
                           ----------------------------
                           !    Initial Parameters    !
                           ! (Angstroms and Degrees)  !
 --------------------------                            --------------------------
 ! Name  Definition              Value          Derivative Info.                !
 --------------------------------------------------------------------------------
 ! R1    R(1,2)                  1.556          estimate D2E/DX2                !
 ! R2    R(1,11)                 1.1009         estimate D2E/DX2                !
 ! R3    R(1,12)                 1.1008         estimate D2E/DX2                !
 ! R4    R(1,13)                 1.1008         estimate D2E/DX2                !
 ! R5    R(2,3)                  1.5608         estimate D2E/DX2                !
 ! R6    R(2,14)                 1.1041         estimate D2E/DX2                !
 ! R7    R(2,15)                 1.1041         estimate D2E/DX2                !
 ! R8    R(3,4)                  1.5607         estimate D2E/DX2                !
 ! R9    R(3,16)                 1.1041         estimate D2E/DX2                !
 ! R10   R(3,17)                 1.1041         estimate D2E/DX2                !
 ! R11   R(4,5)                  1.5608         estimate D2E/DX2                !
 ! R12   R(4,18)                 1.1041         estimate D2E/DX2                !
 ! R13   R(4,19)                 1.1041         estimate D2E/DX2                !
 ! R14   R(5,6)                  1.5609         estimate D2E/DX2                !
 ! R15   R(5,20)                 1.1041         estimate D2E/DX2                !
 ! R16   R(5,21)                 1.1041         estimate D2E/DX2                !
 ! R17   R(6,7)                  1.5608         estimate D2E/DX2                !
 ! R18   R(6,22)                 1.1041         estimate D2E/DX2                !
 ! R19   R(6,23)                 1.1041         estimate D2E/DX2                !
 ! R20   R(7,8)                  1.5607         estimate D2E/DX2                !
 ! R21   R(7,24)                 1.1041         estimate D2E/DX2                !
 ! R22   R(7,25)                 1.1041         estimate D2E/DX2                !
 ! R23   R(8,9)                  1.5608         estimate D2E/DX2                !
 ! R24   R(8,26)                 1.1041         estimate D2E/DX2                !
 ! R25   R(8,27)                 1.1041         estimate D2E/DX2                !
 ! R26   R(9,10)                 1.556          estimate D2E/DX2                !
 ! R27   R(9,28)                 1.1041         estimate D2E/DX2                !
 ! R28   R(9,29)                 1.1041         estimate D2E/DX2                !
 ! R29   R(10,30)                1.1008         estimate D2E/DX2                !
 ! R30   R(10,31)                1.1009         estimate D2E/DX2                !
 ! R31   R(10,32)                1.1008         estimate D2E/DX2                !
 ! A1    A(2,1,11)             110.6144         estimate D2E/DX2                !
 ! A2    A(2,1,12)             110.678          estimate D2E/DX2                !
 ! A3    A(2,1,13)             110.678          estimate D2E/DX2                !
 ! A4    A(11,1,12)            108.29           estimate D2E/DX2                !
 ! A5    A(11,1,13)            108.29           estimate D2E/DX2                !
 ! A6    A(12,1,13)            108.2002         estimate D2E/DX2                !
 ! A7    A(1,2,3)              112.3653         estimate D2E/DX2                !
 ! A8    A(1,2,14)             109.3527         estimate D2E/DX2                !
 ! A9    A(1,2,15)             109.3528         estimate D2E/DX2                !
 ! A10   A(3,2,14)             109.2213         estimate D2E/DX2                !
 ! A11   A(3,2,15)             109.2213         estimate D2E/DX2                !
 ! A12   A(14,2,15)            107.1908         estimate D2E/DX2                !
 ! A13   A(2,3,4)              112.3433         estimate D2E/DX2                !
 ! A14   A(2,3,16)             109.266          estimate D2E/DX2                !
 ! A15   A(2,3,17)             109.266          estimate D2E/DX2                !
 ! A16   A(4,3,16)             109.3124         estimate D2E/DX2                !
 ! A17   A(4,3,17)             109.3124         estimate D2E/DX2                !
 ! A18   A(16,3,17)            107.2062         estimate D2E/DX2                !
 ! A19   A(3,4,5)              112.3324         estimate D2E/DX2                !
 ! A20   A(3,4,18)             109.2875         estimate D2E/DX2                !
 ! A21   A(3,4,19)             109.2875         estimate D2E/DX2                !
 ! A22   A(5,4,18)             109.2959         estimate D2E/DX2                !
 ! A23   A(5,4,19)             109.2959         estimate D2E/DX2                !
 ! A24   A(18,4,19)            107.2073         estimate D2E/DX2                !
 ! A25   A(4,5,6)              112.3305         estimate D2E/DX2                !
 ! A26   A(4,5,20)             109.2947         estimate D2E/DX2                !
 ! A27   A(4,5,21)             109.2947         estimate D2E/DX2                !
 ! A28   A(6,5,20)             109.2891         estimate D2E/DX2                !
 ! A29   A(6,5,21)             109.2891         estimate D2E/DX2                !
 ! A30   A(20,5,21)            107.2089         estimate D2E/DX2                !
 ! A31   A(5,6,7)              112.3305         estimate D2E/DX2                !
 ! A32   A(5,6,22)             109.2891         estimate D2E/DX2                !
 ! A33   A(5,6,23)             109.2891         estimate D2E/DX2                !
 ! A34   A(7,6,22)             109.2947         estimate D2E/DX2                !
 ! A35   A(7,6,23)             109.2947         estimate D2E/DX2                !
 ! A36   A(22,6,23)            107.2089         estimate D2E/DX2                !
 ! A37   A(6,7,8)              112.3325         estimate D2E/DX2                !
 ! A38   A(6,7,24)             109.2959         estimate D2E/DX2                !
 ! A39   A(6,7,25)             109.2959         estimate D2E/DX2                !
 ! A40   A(8,7,24)             109.2875         estimate D2E/DX2                !
 ! A41   A(8,7,25)             109.2875         estimate D2E/DX2                !
 ! A42   A(24,7,25)            107.2073         estimate D2E/DX2                !
 ! A43   A(7,8,9)              112.3433         estimate D2E/DX2                !
 ! A44   A(7,8,26)             109.3124         estimate D2E/DX2                !
 ! A45   A(7,8,27)             109.3124         estimate D2E/DX2                !
 ! A46   A(9,8,26)             109.266          estimate D2E/DX2                !
 ! A47   A(9,8,27)             109.266          estimate D2E/DX2                !
 ! A48   A(26,8,27)            107.2062         estimate D2E/DX2                !
 ! A49   A(8,9,10)             112.3653         estimate D2E/DX2                !
 ! A50   A(8,9,28)             109.2213         estimate D2E/DX2                !
 ! A51   A(8,9,29)             109.2213         estimate D2E/DX2                !
 ! A52   A(10,9,28)            109.3528         estimate D2E/DX2                !
 ! A53   A(10,9,29)            109.3527         estimate D2E/DX2                !
 ! A54   A(28,9,29)            107.1908         estimate D2E/DX2                !
 ! A55   A(9,10,30)            110.678          estimate D2E/DX2                !
 ! A56   A(9,10,31)            110.6144         estimate D2E/DX2                !
 ! A57   A(9,10,32)            110.678          estimate D2E/DX2                !
 ! A58   A(30,10,31)           108.29           estimate D2E/DX2                !
 ! A59   A(30,10,32)           108.2002         estimate D2E/DX2                !
 ! A60   A(31,10,32)           108.29           estimate D2E/DX2                !
 ! D1    D(11,1,2,3)          -179.9995         estimate D2E/DX2                !
 ! D2    D(11,1,2,14)           58.5451         estimate D2E/DX2                !
 ! D3    D(11,1,2,15)          -58.5441         estimate D2E/DX2                !
 ! D4    D(12,1,2,3)            59.9768         estimate D2E/DX2                !
 ! D5    D(12,1,2,14)          -61.4786         estimate D2E/DX2                !
 ! D6    D(12,1,2,15)         -178.5678         estimate D2E/DX2                !
 ! D7    D(13,1,2,3)           -59.9759         estimate D2E/DX2                !
 ! D8    D(13,1,2,14)          178.5688         estimate D2E/DX2                !
 ! D9    D(13,1,2,15)           61.4796         estimate D2E/DX2                !
 ! D10   D(1,2,3,4)           -180.0            estimate D2E/DX2                !
 ! D11   D(1,2,3,16)            58.5042         estimate D2E/DX2                !
 ! D12   D(1,2,3,17)           -58.5042         estimate D2E/DX2                !
 ! D13   D(14,2,3,4)           -58.4695         estimate D2E/DX2                !
 ! D14   D(14,2,3,16)         -179.9654         estimate D2E/DX2                !
 ! D15   D(14,2,3,17)           63.0263         estimate D2E/DX2                !
 ! D16   D(15,2,3,4)            58.4695         estimate D2E/DX2                !
 ! D17   D(15,2,3,16)          -63.0263         estimate D2E/DX2                !
 ! D18   D(15,2,3,17)          179.9653         estimate D2E/DX2                !
 ! D19   D(2,3,4,5)            179.9999         estimate D2E/DX2                !
 ! D20   D(2,3,4,18)            58.5171         estimate D2E/DX2                !
 ! D21   D(2,3,4,19)           -58.5172         estimate D2E/DX2                !
 ! D22   D(16,3,4,5)           -58.5308         estimate D2E/DX2                !
 ! D23   D(16,3,4,18)          179.9864         estimate D2E/DX2                !
 ! D24   D(16,3,4,19)           62.952          estimate D2E/DX2                !
 ! D25   D(17,3,4,5)            58.5306         estimate D2E/DX2                !
 ! D26   D(17,3,4,18)          -62.9522         estimate D2E/DX2                !
 ! D27   D(17,3,4,19)         -179.9865         estimate D2E/DX2                !
 ! D28   D(3,4,5,6)            179.9998         estimate D2E/DX2                !
 ! D29   D(3,4,5,20)            58.522          estimate D2E/DX2                !
 ! D30   D(3,4,5,21)           -58.5224         estimate D2E/DX2                !
 ! D31   D(18,4,5,6)           -58.5222         estimate D2E/DX2                !
 ! D32   D(18,4,5,20)          180.0            estimate D2E/DX2                !
 ! D33   D(18,4,5,21)           62.9556         estimate D2E/DX2                !
 ! D34   D(19,4,5,6)            58.5218         estimate D2E/DX2                !
 ! D35   D(19,4,5,20)          -62.956          estimate D2E/DX2                !
 ! D36   D(19,4,5,21)          179.9996         estimate D2E/DX2                !
 ! D37   D(4,5,6,7)            179.9999         estimate D2E/DX2                !
 ! D38   D(4,5,6,22)            58.5189         estimate D2E/DX2                !
 ! D39   D(4,5,6,23)           -58.5191         estimate D2E/DX2                !
 ! D40   D(20,5,6,7)           -58.5191         estimate D2E/DX2                !
 ! D41   D(20,5,6,22)          179.9999         estimate D2E/DX2                !
 ! D42   D(20,5,6,23)           62.9619         estimate D2E/DX2                !
 ! D43   D(21,5,6,7)            58.5189         estimate D2E/DX2                !
 ! D44   D(21,5,6,22)          -62.9621         estimate D2E/DX2                !
 ! D45   D(21,5,6,23)          179.9999         estimate D2E/DX2                !
 ! D46   D(5,6,7,8)            179.9998         estimate D2E/DX2                !
 ! D47   D(5,6,7,24)            58.5218         estimate D2E/DX2                !
 ! D48   D(5,6,7,25)           -58.5222         estimate D2E/DX2                !
 ! D49   D(22,6,7,8)           -58.5224         estimate D2E/DX2                !
 ! D50   D(22,6,7,24)          179.9996         estimate D2E/DX2                !
 ! D51   D(22,6,7,25)           62.9556         estimate D2E/DX2                !
 ! D52   D(23,6,7,8)            58.5219         estimate D2E/DX2                !
 ! D53   D(23,6,7,24)          -62.9561         estimate D2E/DX2                !
 ! D54   D(23,6,7,25)          179.9999         estimate D2E/DX2                !
 ! D55   D(6,7,8,9)            180.0            estimate D2E/DX2                !
 ! D56   D(6,7,8,26)            58.5307         estimate D2E/DX2                !
 ! D57   D(6,7,8,27)           -58.5307         estimate D2E/DX2                !
 ! D58   D(24,7,8,9)           -58.5172         estimate D2E/DX2                !
 ! D59   D(24,7,8,26)         -179.9865         estimate D2E/DX2                !
 ! D60   D(24,7,8,27)           62.9521         estimate D2E/DX2                !
 ! D61   D(25,7,8,9)            58.5172         estimate D2E/DX2                !
 ! D62   D(25,7,8,26)          -62.9521         estimate D2E/DX2                !
 ! D63   D(25,7,8,27)          179.9864         estimate D2E/DX2                !
 ! D64   D(7,8,9,10)           180.0            estimate D2E/DX2                !
 ! D65   D(7,8,9,28)            58.4695         estimate D2E/DX2                !
 ! D66   D(7,8,9,29)           -58.4696         estimate D2E/DX2                !
 ! D67   D(26,8,9,10)          -58.5042         estimate D2E/DX2                !
 ! D68   D(26,8,9,28)          179.9653         estimate D2E/DX2                !
 ! D69   D(26,8,9,29)           63.0263         estimate D2E/DX2                !
 ! D70   D(27,8,9,10)           58.5042         estimate D2E/DX2                !
 ! D71   D(27,8,9,28)          -63.0263         estimate D2E/DX2                !
 ! D72   D(27,8,9,29)         -179.9654         estimate D2E/DX2                !
 ! D73   D(8,9,10,30)          -59.9753         estimate D2E/DX2                !
 ! D74   D(8,9,10,31)         -179.999          estimate D2E/DX2                !
 ! D75   D(8,9,10,32)           59.9774         estimate D2E/DX2                !
 ! D76   D(28,9,10,30)          61.4801         estimate D2E/DX2                !
 ! D77   D(28,9,10,31)         -58.5435         estimate D2E/DX2                !
 ! D78   D(28,9,10,32)        -178.5672         estimate D2E/DX2                !
 ! D79   D(29,9,10,30)         178.5693         estimate D2E/DX2                !
 ! D80   D(29,9,10,31)          58.5457         estimate D2E/DX2                !
 ! D81   D(29,9,10,32)         -61.478          estimate D2E/DX2                !
 --------------------------------------------------------------------------------
 Trust Radius=3.00D-01 FncErr=1.00D-07 GrdErr=1.00D-06
 Number of steps in this run=    182 maximum allowed number of steps=    192.
 GradGradGradGradGradGradGradGradGradGradGradGradGradGradGradGradGradGrad

                          Input orientation:                          
 ---------------------------------------------------------------------
 Center     Atomic      Atomic             Coordinates (Angstroms)
 Number     Number       Type             X           Y           Z
 ---------------------------------------------------------------------
      1          6           0        0.276843   -1.332131   -2.346709
      2          6           0        0.706055   -2.698422   -1.738363
      3          6           0        1.983366   -2.577751   -0.849481
      4          6           0        2.413432   -3.948500   -0.239541
      5          6           0        3.690743   -3.827541    0.649275
      6          6           0        4.120801   -5.198423    1.259245
      7          6           0        5.398115   -5.077463    2.148058
      8          6           0        5.828176   -6.448210    2.758007
      9          6           0        7.105490   -6.327539    3.646884
     10          6           0        7.534697   -7.693827    4.255240
     11          1           0       -0.624977   -1.450213   -2.967038
     12          1           0        1.078479   -0.918575   -2.977715
     13          1           0        0.055819   -0.604489   -1.550781
     14          1           0        0.897200   -3.418034   -2.553605
     15          1           0       -0.121917   -3.105046   -1.131636
     16          1           0        1.792805   -1.858721   -0.033563
     17          1           0        2.812041   -2.171746   -1.455697
     18          1           0        2.603648   -4.667271   -1.055781
     19          1           0        1.584397   -4.354241    0.366377
     20          1           0        3.500506   -3.108771    1.465502
     21          1           0        4.519760   -3.421808    0.043340
     22          1           0        4.311036   -5.917193    0.443018
     23          1           0        3.291786   -5.604155    1.865182
     24          1           0        5.207904   -4.358686    2.964293
     25          1           0        6.227151   -4.671731    1.542136
     26          1           0        6.018731   -7.167247    1.942093
     27          1           0        4.999501   -6.854208    3.364228
     28          1           0        6.914351   -5.607920    4.462121
     29          1           0        7.933462   -5.920924    3.040151
     30          1           0        6.733051   -8.107387    4.886229
     31          1           0        8.436505   -7.575739    4.875586
     32          1           0        7.755742   -8.421468    3.459316
 ---------------------------------------------------------------------
                    Distance matrix (angstroms):
                    1          2          3          4          5
     1  C    0.000000
     2  C    1.555976   0.000000
     3  C    2.589495   1.560832   0.000000
     4  C    3.981277   2.593126   1.560749   0.000000
     5  C    5.182443   3.985485   2.592949   1.560817   0.000000
     6  C    6.536600   5.186150   3.985383   2.593024   1.560875
     7  C    7.775466   6.540606   5.185972   3.985412   2.593023
     8  C    9.113161   7.779099   6.540412   5.185973   3.985383
     9  C   10.368591   9.117244   7.779098   6.540606   5.186149
    10  C   11.693304  10.368592   9.113161   7.775467   6.536600
    11  H    1.100923   2.199844   3.543846   4.786712   6.111862
    12  H    1.100825   2.200579   2.846237   4.296527   5.333016
    13  H    1.100825   2.200579   2.846229   4.296522   5.333009
    14  H    2.186010   1.104082   2.188577   2.816957   4.269663
    15  H    2.186010   1.104082   2.188577   2.816957   4.269663
    16  H    2.815330   2.189170   1.104102   2.189699   2.818633
    17  H    2.815330   2.189170   1.104102   2.189699   2.818632
    18  H    4.266577   2.818359   2.189384   1.104111   2.189553
    19  H    4.266578   2.818360   2.189384   1.104111   2.189553
    20  H    5.299189   4.271076   2.818305   2.189531   1.104104
    21  H    5.299192   4.271077   2.818308   2.189531   1.104104
    22  H    6.714171   5.302340   4.270887   2.818251   2.189510
    23  H    6.714171   5.302341   4.270887   2.818253   2.189510
    24  H    7.853798   6.718489   5.302287   4.271051   2.818368
    25  H    7.853802   6.718491   5.302291   4.271052   2.818372
    26  H    9.241845   7.857524   6.718671   5.302645   4.271363
    27  H    9.241842   7.857523   6.718668   5.302644   4.271361
    28  H   10.425883   9.244139   7.855549   6.716960   5.300866
    29  H   10.425887   9.244141   7.855552   6.716961   5.300868
    30  H   11.828023  10.462639   9.275492   7.888533   6.747184
    31  H   12.558833  11.282394   9.969919   8.694756   7.377869
    32  H   11.828041  10.462658   9.275510   7.888552   6.747200
                    6          7          8          9         10
     6  C    0.000000
     7  C    1.560817   0.000000
     8  C    2.592949   1.560749   0.000000
     9  C    3.985485   2.593126   1.560832   0.000000
    10  C    5.182443   3.981277   2.589495   1.555976   0.000000
    11  H    7.377869   8.694756   9.969920  11.282393  12.558834
    12  H    6.747195   7.888545   9.275505  10.462651  11.828036
    13  H    6.747189   7.888538   9.275496  10.462642  11.828027
    14  H    5.300869   6.716961   7.855553   9.244141  10.425888
    15  H    5.300868   6.716961   7.855551   9.244140  10.425886
    16  H    4.271362   5.302644   6.718668   7.857522   9.241841
    17  H    4.271363   5.302643   6.718670   7.857522   9.241844
    18  H    2.818372   4.271052   5.302292   6.718492   7.853804
    19  H    2.818369   4.271051   5.302289   6.718490   7.853800
    20  H    2.189510   2.818253   4.270886   5.302339   6.714170
    21  H    2.189510   2.818251   4.270887   5.302339   6.714171
    22  H    1.104104   2.189531   2.818309   4.271078   5.299194
    23  H    1.104104   2.189531   2.818305   4.271076   5.299190
    24  H    2.189553   1.104111   2.189384   2.818359   4.266577
    25  H    2.189552   1.104111   2.189384   2.818358   4.266577
    26  H    2.818633   2.189699   1.104102   2.189170   2.815331
    27  H    2.818633   2.189700   1.104102   2.189170   2.815330
    28  H    4.269663   2.816957   2.188577   1.104082   2.186010
    29  H    4.269663   2.816957   2.188577   1.104082   2.186010
    30  H    5.333005   4.296519   2.846225   2.200579   1.100825
    31  H    6.111862   4.786712   3.543846   2.199844   1.100923
    32  H    5.333022   4.296530   2.846242   2.200579   1.100825
                   11         12         13         14         15
    11  H    0.000000
    12  H    1.784521   0.000000
    13  H    1.784521   1.783431   0.000000
    14  H    2.521957   2.541658   3.103161   0.000000
    15  H    2.521952   3.103161   2.541664   1.777233   0.000000
    16  H    3.823326   3.172092   2.625294   3.095832   2.534808
    17  H    3.823330   2.625302   3.172080   2.534807   3.095832
    18  H    4.942306   4.480256   4.821064   2.591531   3.142452
    19  H    4.942304   4.821069   4.480255   3.142454   2.591532
    20  H    6.278362   5.514104   5.218741   4.798548   4.457251
    21  H    6.278367   5.218751   5.514098   4.457250   4.798550
    22  H    7.479748   6.865641   7.092738   5.184576   5.480765
    23  H    7.479747   7.092745   6.865634   5.480770   5.184576
    24  H    8.812628   8.012114   7.811777   7.064997   6.837780
    25  H    8.812632   7.811789   8.012111   6.837779   7.065000
    26  H   10.046040   9.362505   9.530283   7.778045   7.978525
    27  H   10.046036   9.530288   9.362494   7.978528   7.778042
    28  H   11.371912  10.554549  10.403305   9.498532   9.330785
    29  H   11.371916  10.403317  10.554544   9.330785   9.498532
    30  H   12.654341  12.062123  11.929543  10.554540  10.403303
    31  H   13.458799  12.654356  12.654344  11.371917  11.371913
    32  H   12.654362  11.929569  12.062133  10.403325  10.554558
                   16         17         18         19         20
    16  H    0.000000
    17  H    1.777440   0.000000
    18  H    3.096829   2.535943   0.000000
    19  H    2.535943   3.096829   1.777468   0.000000
    20  H    2.593466   3.144106   3.096796   2.535891   0.000000
    21  H    3.144112   2.593468   2.535889   3.096796   1.777474
    22  H    4.799981   4.458754   2.593045   3.143765   3.096719
    23  H    4.458750   4.799982   3.143773   2.593044   2.535793
    24  H    5.186508   5.482625   4.799830   4.458586   2.593043
    25  H    5.482634   5.186512   4.458583   4.799831   3.143773
    26  H    7.066974   6.839801   5.186514   5.482628   4.799982
    27  H    6.839793   7.066973   5.482635   5.186510   4.458749
    28  H    7.778039   7.978522   7.064999   6.837780   5.184574
    29  H    7.978527   7.778043   6.837780   7.064998   5.480769
    30  H    9.362490   9.530278   8.012107   7.811774   6.865631
    31  H   10.046034  10.046039   8.812634   8.812628   7.479743
    32  H    9.530292   9.362508   7.811797   8.012123   7.092748
                   21         22         23         24         25
    21  H    0.000000
    22  H    2.535795   0.000000
    23  H    3.096719   1.777474   0.000000
    24  H    3.143764   3.096796   2.535892   0.000000
    25  H    2.593044   2.535889   3.096796   1.777468   0.000000
    26  H    4.458755   2.593469   3.144107   3.096829   2.535943
    27  H    4.799981   3.144113   2.593466   2.535943   3.096829
    28  H    5.480764   4.798550   4.457251   2.591531   3.142452
    29  H    5.184575   4.457251   4.798548   3.142453   2.591531
    30  H    7.092734   5.514094   5.218736   4.480253   4.821061
    31  H    7.479748   6.278370   6.278361   4.942301   4.942307
    32  H    6.865644   5.218759   5.514111   4.821071   4.480257
                   26         27         28         29         30
    26  H    0.000000
    27  H    1.777440   0.000000
    28  H    3.095832   2.534808   0.000000
    29  H    2.534807   3.095832   1.777233   0.000000
    30  H    3.172074   2.625289   2.541668   3.103162   0.000000
    31  H    3.823333   3.823324   2.521948   2.521961   1.784521
    32  H    2.625308   3.172099   3.103161   2.541654   1.783431
                   31         32
    31  H    0.000000
    32  H    1.784521   0.000000
 Stoichiometry    C10H22
 Framework group  C1[X(C10H22)]
 Deg. of freedom    90
 Full point group                 C1      NOp   1
 Largest Abelian subgroup         C1      NOp   1
 Largest concise Abelian subgroup C1      NOp   1
                         Standard orientation:                         
 ---------------------------------------------------------------------
 Center     Atomic      Atomic             Coordinates (Angstroms)
 Number     Number       Type             X           Y           Z
 ---------------------------------------------------------------------
      1          6           0       -5.839339   -0.292340   -0.000004
      2          6           0       -4.526237    0.542419    0.000001
      3          6           0       -3.250653   -0.357071   -0.000002
      4          6           0       -1.933844    0.480755    0.000003
      5          6           0       -0.658443   -0.418968    0.000001
      6          6           0        0.658443    0.418970    0.000002
      7          6           0        1.933844   -0.480754    0.000004
      8          6           0        3.250654    0.357071   -0.000001
      9          6           0        4.526236   -0.542420    0.000001
     10          6           0        5.839339    0.292337   -0.000005
     11          1           0       -6.719259    0.369303   -0.000010
     12          1           0       -5.890922   -0.935766    0.891713
     13          1           0       -5.890913   -0.935770   -0.891718
     14          1           0       -4.509103    1.197445    0.888621
     15          1           0       -4.509102    1.197454   -0.888612
     16          1           0       -3.266728   -1.012016   -0.888725
     17          1           0       -3.266730   -1.012024    0.888715
     18          1           0       -1.918308    1.135711    0.888740
     19          1           0       -1.918305    1.135718   -0.888729
     20          1           0       -0.674001   -1.073909   -0.888736
     21          1           0       -0.674001   -1.073911    0.888738
     22          1           0        0.674000    1.073913    0.888739
     23          1           0        0.674002    1.073912   -0.888735
     24          1           0        1.918305   -1.135717   -0.888728
     25          1           0        1.918307   -1.135709    0.888741
     26          1           0        3.266731    1.012024    0.888716
     27          1           0        3.266729    1.012017   -0.888724
     28          1           0        4.509100   -1.197455   -0.888612
     29          1           0        4.509103   -1.197446    0.888621
     30          1           0        5.890909    0.935775   -0.891713
     31          1           0        6.719258   -0.369307   -0.000022
     32          1           0        5.890929    0.935756    0.891717
 ---------------------------------------------------------------------
 Rotational constants (GHZ):      8.2266065      0.2462511      0.2427558
 Standard basis: STO-3G (5D, 7F)
 There are    72 symmetry adapted cartesian basis functions of A   symmetry.
 There are    72 symmetry adapted basis functions of A   symmetry.
    72 basis functions,   216 primitive gaussians,    72 cartesian basis functions
    41 alpha electrons       41 beta electrons
       nuclear repulsion energy       510.3641143849 Hartrees.
 NAtoms=   32 NActive=   32 NUniq=   32 SFac= 1.00D+00 NAtFMM=   60 NAOKFM=F Big=F
 Integral buffers will be    131072 words long.
 Raffenetti 2 integral format.
 Two-electron integral symmetry is turned on.
 One-electron integrals computed using PRISM.
 NBasis=    72 RedAO= T EigKep=  2.09D-01  NBF=    72
 NBsUse=    72 1.00D-06 EigRej= -1.00D+00 NBFU=    72
 ExpMin= 1.69D-01 ExpMax= 7.16D+01 ExpMxC= 7.16D+01 IAcc=1 IRadAn=         1 AccDes= 0.00D+00
 Harris functional with IExCor=  402 and IRadAn=       1 diagonalized for initial guess.
 HarFok:  IExCor=  402 AccDes= 0.00D+00 IRadAn=         1 IDoV= 1 UseB2=F ITyADJ=14
 ICtDFT=  3500011 ScaDFX=  1.000000  1.000000  1.000000  1.000000
 FoFCou: FMM=F IPFlag=           0 FMFlag=      100000 FMFlg1=           0
         NFxFlg=           0 DoJE=T BraDBF=F KetDBF=T FulRan=T
         wScrn=  0.000000 ICntrl=     500 IOpCl=  0 I1Cent=   200000004 NGrid=           0
         NMat0=    1 NMatS0=      1 NMatT0=    0 NMatD0=    1 NMtDS0=    0 NMtDT0=    0
 Petite list used in FoFCou.
 Keep R1 ints in memory in canonical form, NReq=4385880.
 Requested convergence on RMS density matrix=1.00D-08 within 128 cycles.
 Requested convergence on MAX density matrix=1.00D-06.
 Requested convergence on             energy=1.00D-06.
 No special actions if energy rises.
 Integral accuracy reduced to 1.0D-05 until final iterations.
 Initial convergence to 1.0D-05 achieved.  Increase integral accuracy.
 SCF Done:  E(RB3LYP) =  -389.671228763     A.U. after   10 cycles
            NFock= 10  Conv=0.38D-08     -V/T= 2.0184

 **********************************************************************

            Population analysis using the SCF density.

 **********************************************************************

 Orbital symmetries:
       Occupied  (A) (A) (A) (A) (A) (A) (A) (A) (A) (A) (A) (A)
                 (A) (A) (A) (A) (A) (A) (A) (A) (A) (A) (A) (A)
                 (A) (A) (A) (A) (A) (A) (A) (A) (A) (A) (A) (A)
                 (A) (A) (A) (A) (A)
       Virtual   (A) (A) (A) (A) (A) (A) (A) (A) (A) (A) (A) (A)
                 (A) (A) (A) (A) (A) (A) (A) (A) (A) (A) (A) (A)
                 (A) (A) (A) (A) (A) (A) (A)
 The electronic state is 1-A.
 Alpha  occ. eigenvalues --  -10.00715 -10.00715 -10.00466 -10.00441 -10.00403
 Alpha  occ. eigenvalues --  -10.00360 -10.00317 -10.00280  -9.99963  -9.99963
 Alpha  occ. eigenvalues --   -0.76316  -0.74841  -0.72385  -0.69043  -0.64983
 Alpha  occ. eigenvalues --   -0.60521  -0.56378  -0.54252  -0.53747  -0.53573
 Alpha  occ. eigenvalues --   -0.44516  -0.43146  -0.40957  -0.38996  -0.38187
 Alpha  occ. eigenvalues --   -0.38120  -0.37125  -0.35197  -0.34626  -0.33793
 Alpha  occ. eigenvalues --   -0.32436  -0.31948  -0.30304  -0.29772  -0.28994
 Alpha  occ. eigenvalues --   -0.28628  -0.28416  -0.28293  -0.28285  -0.27664
 Alpha  occ. eigenvalues --   -0.24221
 Alpha virt. eigenvalues --    0.31284   0.35775   0.36178   0.37348   0.38325
 Alpha virt. eigenvalues --    0.38627   0.39698   0.39741   0.41792   0.41999
 Alpha virt. eigenvalues --    0.42446   0.44622   0.45249   0.46896   0.47133
 Alpha virt. eigenvalues --    0.47873   0.47892   0.48010   0.48493   0.49018
 Alpha virt. eigenvalues --    0.50247   0.50303   0.50340   0.50474   0.50513
 Alpha virt. eigenvalues --    0.51668   0.52356   0.52525   0.52607   0.54585
 Alpha virt. eigenvalues --    0.55989
          Condensed to atoms (all electrons):
               1          2          3          4          5          6
     1  C    4.785621   0.359426  -0.019942   0.000600  -0.000004   0.000000
     2  C    0.359426   4.776187   0.358322  -0.019061   0.000585  -0.000003
     3  C   -0.019942   0.358322   4.788045   0.358162  -0.018993   0.000584
     4  C    0.000600  -0.019061   0.358162   4.788182   0.358074  -0.018995
     5  C   -0.000004   0.000585  -0.018993   0.358074   4.788130   0.358027
     6  C    0.000000  -0.000003   0.000584  -0.018995   0.358027   4.788130
     7  C    0.000000   0.000000  -0.000003   0.000584  -0.018995   0.358074
     8  C    0.000000   0.000000   0.000000  -0.000003   0.000584  -0.018993
     9  C    0.000000   0.000000   0.000000   0.000000  -0.000003   0.000585
    10  C    0.000000   0.000000   0.000000   0.000000   0.000000  -0.000004
    11  H    0.379546  -0.018569   0.001146  -0.000013   0.000000   0.000000
    12  H    0.379494  -0.019569  -0.001953   0.000006   0.000000   0.000000
    13  H    0.379494  -0.019569  -0.001954   0.000006   0.000000   0.000000
    14  H   -0.021189   0.378132  -0.021337  -0.001943   0.000004   0.000000
    15  H   -0.021189   0.378132  -0.021337  -0.001943   0.000004   0.000000
    16  H   -0.001920  -0.021236   0.377532  -0.021209  -0.001945   0.000005
    17  H   -0.001920  -0.021236   0.377532  -0.021209  -0.001945   0.000005
    18  H    0.000005  -0.001947  -0.021230   0.377510  -0.021218  -0.001946
    19  H    0.000005  -0.001947  -0.021230   0.377510  -0.021218  -0.001946
    20  H    0.000000   0.000005  -0.001946  -0.021225   0.377523  -0.021226
    21  H    0.000000   0.000005  -0.001946  -0.021225   0.377523  -0.021226
    22  H    0.000000   0.000000   0.000005  -0.001946  -0.021226   0.377523
    23  H    0.000000   0.000000   0.000005  -0.001946  -0.021226   0.377523
    24  H    0.000000   0.000000   0.000000   0.000005  -0.001946  -0.021218
    25  H    0.000000   0.000000   0.000000   0.000005  -0.001946  -0.021218
    26  H    0.000000   0.000000   0.000000   0.000000   0.000005  -0.001945
    27  H    0.000000   0.000000   0.000000   0.000000   0.000005  -0.001945
    28  H    0.000000   0.000000   0.000000   0.000000   0.000000   0.000004
    29  H    0.000000   0.000000   0.000000   0.000000   0.000000   0.000004
    30  H    0.000000   0.000000   0.000000   0.000000   0.000000   0.000000
    31  H    0.000000   0.000000   0.000000   0.000000   0.000000   0.000000
    32  H    0.000000   0.000000   0.000000   0.000000   0.000000   0.000000
               7          8          9         10         11         12
     1  C    0.000000   0.000000   0.000000   0.000000   0.379546   0.379494
     2  C    0.000000   0.000000   0.000000   0.000000  -0.018569  -0.019569
     3  C   -0.000003   0.000000   0.000000   0.000000   0.001146  -0.001953
     4  C    0.000584  -0.000003   0.000000   0.000000  -0.000013   0.000006
     5  C   -0.018995   0.000584  -0.000003   0.000000   0.000000   0.000000
     6  C    0.358074  -0.018993   0.000585  -0.000004   0.000000   0.000000
     7  C    4.788182   0.358162  -0.019061   0.000600   0.000000   0.000000
     8  C    0.358162   4.788045   0.358322  -0.019942   0.000000   0.000000
     9  C   -0.019061   0.358322   4.776187   0.359426   0.000000   0.000000
    10  C    0.000600  -0.019942   0.359426   4.785621   0.000000   0.000000
    11  H    0.000000   0.000000   0.000000   0.000000   0.612455  -0.020908
    12  H    0.000000   0.000000   0.000000   0.000000  -0.020908   0.613503
    13  H    0.000000   0.000000   0.000000   0.000000  -0.020908  -0.021156
    14  H    0.000000   0.000000   0.000000   0.000000  -0.002052  -0.002171
    15  H    0.000000   0.000000   0.000000   0.000000  -0.002052   0.001807
    16  H    0.000000   0.000000   0.000000   0.000000   0.000006  -0.000012
    17  H    0.000000   0.000000   0.000000   0.000000   0.000006   0.000534
    18  H    0.000005   0.000000   0.000000   0.000000   0.000000   0.000002
    19  H    0.000005   0.000000   0.000000   0.000000   0.000000   0.000000
    20  H   -0.001946   0.000005   0.000000   0.000000   0.000000   0.000000
    21  H   -0.001946   0.000005   0.000000   0.000000   0.000000   0.000000
    22  H   -0.021225  -0.001946   0.000005   0.000000   0.000000   0.000000
    23  H   -0.021225  -0.001946   0.000005   0.000000   0.000000   0.000000
    24  H    0.377510  -0.021230  -0.001947   0.000005   0.000000   0.000000
    25  H    0.377510  -0.021230  -0.001947   0.000005   0.000000   0.000000
    26  H   -0.021209   0.377532  -0.021236  -0.001920   0.000000   0.000000
    27  H   -0.021209   0.377532  -0.021236  -0.001920   0.000000   0.000000
    28  H   -0.001943  -0.021337   0.378132  -0.021189   0.000000   0.000000
    29  H   -0.001943  -0.021337   0.378132  -0.021189   0.000000   0.000000
    30  H    0.000006  -0.001954  -0.019569   0.379494   0.000000   0.000000
    31  H   -0.000013   0.001146  -0.018569   0.379546   0.000000   0.000000
    32  H    0.000006  -0.001953  -0.019569   0.379494   0.000000   0.000000
              13         14         15         16         17         18
     1  C    0.379494  -0.021189  -0.021189  -0.001920  -0.001920   0.000005
     2  C   -0.019569   0.378132   0.378132  -0.021236  -0.021236  -0.001947
     3  C   -0.001954  -0.021337  -0.021337   0.377532   0.377532  -0.021230
     4  C    0.000006  -0.001943  -0.001943  -0.021209  -0.021209   0.377510
     5  C    0.000000   0.000004   0.000004  -0.001945  -0.001945  -0.021218
     6  C    0.000000   0.000000   0.000000   0.000005   0.000005  -0.001946
     7  C    0.000000   0.000000   0.000000   0.000000   0.000000   0.000005
     8  C    0.000000   0.000000   0.000000   0.000000   0.000000   0.000000
     9  C    0.000000   0.000000   0.000000   0.000000   0.000000   0.000000
    10  C    0.000000   0.000000   0.000000   0.000000   0.000000   0.000000
    11  H   -0.020908  -0.002052  -0.002052   0.000006   0.000006   0.000000
    12  H   -0.021156  -0.002171   0.001807  -0.000012   0.000534   0.000002
    13  H    0.613503   0.001807  -0.002171   0.000534  -0.000012   0.000000
    14  H    0.001807   0.625067  -0.022909   0.001817  -0.002204   0.000541
    15  H   -0.002171  -0.022909   0.625067  -0.002204   0.001817  -0.000002
    16  H    0.000534   0.001817  -0.002204   0.626455  -0.022995   0.001812
    17  H   -0.000012  -0.002204   0.001817  -0.022995   0.626455  -0.002193
    18  H    0.000000   0.000541  -0.000002   0.001812  -0.002193   0.626601
    19  H    0.000002  -0.000002   0.000541  -0.002193   0.001812  -0.023012
    20  H    0.000000   0.000000   0.000002   0.000533  -0.000001   0.001812
    21  H    0.000000   0.000002   0.000000  -0.000001   0.000533  -0.002195
    22  H    0.000000   0.000000   0.000000   0.000000   0.000002   0.000534
    23  H    0.000000   0.000000   0.000000   0.000002   0.000000  -0.000001
    24  H    0.000000   0.000000   0.000000   0.000000   0.000000   0.000000
    25  H    0.000000   0.000000   0.000000   0.000000   0.000000   0.000002
    26  H    0.000000   0.000000   0.000000   0.000000   0.000000   0.000000
    27  H    0.000000   0.000000   0.000000   0.000000   0.000000   0.000000
    28  H    0.000000   0.000000   0.000000   0.000000   0.000000   0.000000
    29  H    0.000000   0.000000   0.000000   0.000000   0.000000   0.000000
    30  H    0.000000   0.000000   0.000000   0.000000   0.000000   0.000000
    31  H    0.000000   0.000000   0.000000   0.000000   0.000000   0.000000
    32  H    0.000000   0.000000   0.000000   0.000000   0.000000   0.000000
              19         20         21         22         23         24
     1  C    0.000005   0.000000   0.000000   0.000000   0.000000   0.000000
     2  C   -0.001947   0.000005   0.000005   0.000000   0.000000   0.000000
     3  C   -0.021230  -0.001946  -0.001946   0.000005   0.000005   0.000000
     4  C    0.377510  -0.021225  -0.021225  -0.001946  -0.001946   0.000005
     5  C   -0.021218   0.377523   0.377523  -0.021226  -0.021226  -0.001946
     6  C   -0.001946  -0.021226  -0.021226   0.377523   0.377523  -0.021218
     7  C    0.000005  -0.001946  -0.001946  -0.021225  -0.021225   0.377510
     8  C    0.000000   0.000005   0.000005  -0.001946  -0.001946  -0.021230
     9  C    0.000000   0.000000   0.000000   0.000005   0.000005  -0.001947
    10  C    0.000000   0.000000   0.000000   0.000000   0.000000   0.000005
    11  H    0.000000   0.000000   0.000000   0.000000   0.000000   0.000000
    12  H    0.000000   0.000000   0.000000   0.000000   0.000000   0.000000
    13  H    0.000002   0.000000   0.000000   0.000000   0.000000   0.000000
    14  H   -0.000002   0.000000   0.000002   0.000000   0.000000   0.000000
    15  H    0.000541   0.000002   0.000000   0.000000   0.000000   0.000000
    16  H   -0.002193   0.000533  -0.000001   0.000000   0.000002   0.000000
    17  H    0.001812  -0.000001   0.000533   0.000002   0.000000   0.000000
    18  H   -0.023012   0.001812  -0.002195   0.000534  -0.000001   0.000000
    19  H    0.626601  -0.002195   0.001812  -0.000001   0.000534   0.000002
    20  H   -0.002195   0.626560  -0.023008   0.001812  -0.002195   0.000534
    21  H    0.001812  -0.023008   0.626560  -0.002195   0.001812  -0.000001
    22  H   -0.000001   0.001812  -0.002195   0.626560  -0.023008   0.001812
    23  H    0.000534  -0.002195   0.001812  -0.023008   0.626560  -0.002195
    24  H    0.000002   0.000534  -0.000001   0.001812  -0.002195   0.626601
    25  H    0.000000  -0.000001   0.000534  -0.002195   0.001812  -0.023012
    26  H    0.000000   0.000000   0.000002   0.000533  -0.000001   0.001812
    27  H    0.000000   0.000002   0.000000  -0.000001   0.000533  -0.002193
    28  H    0.000000   0.000000   0.000000   0.000000   0.000002   0.000541
    29  H    0.000000   0.000000   0.000000   0.000002   0.000000  -0.000002
    30  H    0.000000   0.000000   0.000000   0.000000   0.000000   0.000002
    31  H    0.000000   0.000000   0.000000   0.000000   0.000000   0.000000
    32  H    0.000000   0.000000   0.000000   0.000000   0.000000   0.000000
              25         26         27         28         29         30
     1  C    0.000000   0.000000   0.000000   0.000000   0.000000   0.000000
     2  C    0.000000   0.000000   0.000000   0.000000   0.000000   0.000000
     3  C    0.000000   0.000000   0.000000   0.000000   0.000000   0.000000
     4  C    0.000005   0.000000   0.000000   0.000000   0.000000   0.000000
     5  C   -0.001946   0.000005   0.000005   0.000000   0.000000   0.000000
     6  C   -0.021218  -0.001945  -0.001945   0.000004   0.000004   0.000000
     7  C    0.377510  -0.021209  -0.021209  -0.001943  -0.001943   0.000006
     8  C   -0.021230   0.377532   0.377532  -0.021337  -0.021337  -0.001954
     9  C   -0.001947  -0.021236  -0.021236   0.378132   0.378132  -0.019569
    10  C    0.000005  -0.001920  -0.001920  -0.021189  -0.021189   0.379494
    11  H    0.000000   0.000000   0.000000   0.000000   0.000000   0.000000
    12  H    0.000000   0.000000   0.000000   0.000000   0.000000   0.000000
    13  H    0.000000   0.000000   0.000000   0.000000   0.000000   0.000000
    14  H    0.000000   0.000000   0.000000   0.000000   0.000000   0.000000
    15  H    0.000000   0.000000   0.000000   0.000000   0.000000   0.000000
    16  H    0.000000   0.000000   0.000000   0.000000   0.000000   0.000000
    17  H    0.000000   0.000000   0.000000   0.000000   0.000000   0.000000
    18  H    0.000002   0.000000   0.000000   0.000000   0.000000   0.000000
    19  H    0.000000   0.000000   0.000000   0.000000   0.000000   0.000000
    20  H   -0.000001   0.000000   0.000002   0.000000   0.000000   0.000000
    21  H    0.000534   0.000002   0.000000   0.000000   0.000000   0.000000
    22  H   -0.002195   0.000533  -0.000001   0.000000   0.000002   0.000000
    23  H    0.001812  -0.000001   0.000533   0.000002   0.000000   0.000000
    24  H   -0.023012   0.001812  -0.002193   0.000541  -0.000002   0.000002
    25  H    0.626601  -0.002193   0.001812  -0.000002   0.000541   0.000000
    26  H   -0.002193   0.626455  -0.022995   0.001817  -0.002204  -0.000012
    27  H    0.001812  -0.022995   0.626455  -0.002204   0.001817   0.000534
    28  H   -0.000002   0.001817  -0.002204   0.625067  -0.022909  -0.002171
    29  H    0.000541  -0.002204   0.001817  -0.022909   0.625067   0.001807
    30  H    0.000000  -0.000012   0.000534  -0.002171   0.001807   0.613503
    31  H    0.000000   0.000006   0.000006  -0.002052  -0.002052  -0.020908
    32  H    0.000002   0.000534  -0.000012   0.001807  -0.002171  -0.021156
              31         32
     1  C    0.000000   0.000000
     2  C    0.000000   0.000000
     3  C    0.000000   0.000000
     4  C    0.000000   0.000000
     5  C    0.000000   0.000000
     6  C    0.000000   0.000000
     7  C   -0.000013   0.000006
     8  C    0.001146  -0.001953
     9  C   -0.018569  -0.019569
    10  C    0.379546   0.379494
    11  H    0.000000   0.000000
    12  H    0.000000   0.000000
    13  H    0.000000   0.000000
    14  H    0.000000   0.000000
    15  H    0.000000   0.000000
    16  H    0.000000   0.000000
    17  H    0.000000   0.000000
    18  H    0.000000   0.000000
    19  H    0.000000   0.000000
    20  H    0.000000   0.000000
    21  H    0.000000   0.000000
    22  H    0.000000   0.000000
    23  H    0.000000   0.000000
    24  H    0.000000   0.000000
    25  H    0.000000   0.000002
    26  H    0.000006   0.000534
    27  H    0.000006  -0.000012
    28  H   -0.002052   0.001807
    29  H   -0.002052  -0.002171
    30  H   -0.020908  -0.021156
    31  H    0.612455  -0.020908
    32  H   -0.020908   0.613503
 Mulliken charges:
               1
     1  C   -0.218027
     2  C   -0.127653
     3  C   -0.129461
     4  C   -0.129924
     5  C   -0.129801
     6  C   -0.129801
     7  C   -0.129924
     8  C   -0.129461
     9  C   -0.127653
    10  C   -0.218027
    11  H    0.071344
    12  H    0.070424
    13  H    0.070424
    14  H    0.066438
    15  H    0.066438
    16  H    0.065021
    17  H    0.065021
    18  H    0.064922
    19  H    0.064922
    20  H    0.064957
    21  H    0.064957
    22  H    0.064957
    23  H    0.064957
    24  H    0.064922
    25  H    0.064922
    26  H    0.065021
    27  H    0.065021
    28  H    0.066438
    29  H    0.066438
    30  H    0.070424
    31  H    0.071344
    32  H    0.070424
 Sum of Mulliken charges =   0.00000
 Mulliken charges with hydrogens summed into heavy atoms:
               1
     1  C   -0.005835
     2  C    0.005222
     3  C    0.000580
     4  C   -0.000080
     5  C    0.000113
     6  C    0.000113
     7  C   -0.000080
     8  C    0.000580
     9  C    0.005222
    10  C   -0.005835
 Electronic spatial extent (au):  <R**2>=           4611.7227
 Charge=              0.0000 electrons
 Dipole moment (field-independent basis, Debye):
    X=              0.0000    Y=              0.0000    Z=              0.0000  Tot=              0.0000
 Quadrupole moment (field-independent basis, Debye-Ang):
   XX=            -64.6041   YY=            -63.5154   ZZ=            -62.5389
   XY=             -0.2394   XZ=              0.0000   YZ=              0.0000
 Traceless Quadrupole moment (field-independent basis, Debye-Ang):
   XX=             -1.0513   YY=              0.0374   ZZ=              1.0139
   XY=             -0.2394   XZ=              0.0000   YZ=              0.0000
 Octapole moment (field-independent basis, Debye-Ang**2):
  XXX=              0.0000  YYY=              0.0000  ZZZ=              0.0000  XYY=              0.0000
  XXY=              0.0000  XXZ=              0.0000  XZZ=              0.0000  YZZ=              0.0000
  YYZ=              0.0000  XYZ=              0.0000
 Hexadecapole moment (field-independent basis, Debye-Ang**3):
 XXXX=          -5707.7060 YYYY=           -213.1351 ZZZZ=           -119.7020 XXXY=            -30.0487
 XXXZ=             -0.0001 YYYX=             -0.3592 YYYZ=              0.0000 ZZZX=              0.0001
 ZZZY=              0.0000 XXYY=           -973.9751 XXZZ=           -951.1350 YYZZ=            -47.9348
 XXYZ=              0.0001 YYXZ=             -0.0001 ZZXY=              4.0404
 N-N= 5.103641143849D+02 E-N=-1.919567950839D+03  KE= 3.826476051149D+02
 Calling FoFJK, ICntrl=      2127 FMM=F ISym2X=0 I1Cent= 0 IOpClX= 0 NMat=1 NMatS=1 NMatT=0.
 ***** Axes restored to original set *****
 -------------------------------------------------------------------
 Center     Atomic                   Forces (Hartrees/Bohr)
 Number     Number              X              Y              Z
 -------------------------------------------------------------------
      1        6           0.000000077    0.000000118    0.000000041
      2        6           0.000000319    0.000000287    0.000000141
      3        6          -0.000000120    0.000000039   -0.000000134
      4        6          -0.000000081   -0.000000076   -0.000000037
      5        6           0.000000111    0.000000144    0.000000029
      6        6          -0.000000107   -0.000000159   -0.000000044
      7        6           0.000000079    0.000000072    0.000000030
      8        6           0.000000167   -0.000000075    0.000000070
      9        6          -0.000000292   -0.000000293   -0.000000193
     10        6          -0.000000090   -0.000000127   -0.000000028
     11        1           0.000000071    0.000000155   -0.000000017
     12        1           0.000000134    0.000000194    0.000000076
     13        1           0.000000105    0.000000165    0.000000041
     14        1           0.000000014    0.000000122   -0.000000038
     15        1           0.000000018    0.000000166    0.000000037
     16        1           0.000000116    0.000000086    0.000000111
     17        1           0.000000136    0.000000078    0.000000042
     18        1           0.000000000    0.000000082   -0.000000028
     19        1          -0.000000019    0.000000110   -0.000000018
     20        1           0.000000048   -0.000000025    0.000000059
     21        1           0.000000044   -0.000000005    0.000000025
     22        1          -0.000000036    0.000000007   -0.000000033
     23        1          -0.000000056    0.000000041   -0.000000036
     24        1          -0.000000001   -0.000000105    0.000000046
     25        1           0.000000009   -0.000000077    0.000000024
     26        1          -0.000000103   -0.000000084   -0.000000086
     27        1          -0.000000155   -0.000000059   -0.000000053
     28        1          -0.000000105   -0.000000164    0.000000044
     29        1           0.000000023   -0.000000104    0.000000040
     30        1          -0.000000099   -0.000000148   -0.000000009
     31        1          -0.000000020   -0.000000174   -0.000000051
     32        1          -0.000000187   -0.000000192   -0.000000049
 -------------------------------------------------------------------
 Cartesian Forces:  Max     0.000000319 RMS     0.000000110

 GradGradGradGradGradGradGradGradGradGradGradGradGradGradGradGradGradGrad
 Berny optimization.
 FormGI is forming the generalized inverse of G from B-inverse, IUseBI=4.
 GSVD:  received Info=                   1 from GESDD.
 Internal  Forces:  Max     0.000000257 RMS     0.000000046
 Search for a local minimum.
 Step number   1 out of a maximum of  182
 All quantities printed in internal units (Hartrees-Bohrs-Radians)
 Mixed Optimization -- En-DIIS/RFO-DIIS
 Second derivative matrix not updated -- first step.
 ITU=  0
     Eigenvalues ---    0.00230   0.00230   0.00230   0.00230   0.00230
     Eigenvalues ---    0.00230   0.00230   0.00230   0.00230   0.03474
     Eigenvalues ---    0.03474   0.03476   0.03476   0.03477   0.03477
     Eigenvalues ---    0.03478   0.03478   0.04760   0.04760   0.04761
     Eigenvalues ---    0.04761   0.04761   0.04761   0.04761   0.04761
     Eigenvalues ---    0.05494   0.05494   0.05497   0.05497   0.08193
     Eigenvalues ---    0.08193   0.08193   0.08193   0.08195   0.08195
     Eigenvalues ---    0.08199   0.08199   0.12116   0.12116   0.12116
     Eigenvalues ---    0.12116   0.12117   0.12117   0.12120   0.12120
     Eigenvalues ---    0.16000   0.16000   0.16000   0.16000   0.16000
     Eigenvalues ---    0.16000   0.21925   0.21925   0.21925   0.21925
     Eigenvalues ---    0.21925   0.21925   0.21925   0.21925   0.26747
     Eigenvalues ---    0.26750   0.26750   0.26752   0.26752   0.26757
     Eigenvalues ---    0.26757   0.27149   0.27149   0.33232   0.33232
     Eigenvalues ---    0.33232   0.33232   0.33232   0.33232   0.33232
     Eigenvalues ---    0.33232   0.33233   0.33233   0.33233   0.33233
     Eigenvalues ---    0.33235   0.33235   0.33235   0.33235   0.33580
     Eigenvalues ---    0.33580   0.33591   0.33591   0.33591   0.33591
 RFO step:  Lambda= 0.00000000D+00 EMin= 2.30000000D-03
 Linear search not attempted -- first point.
 Iteration  1 RMS(Cart)=  0.00000611 RMS(Int)=  0.00000000
 Iteration  2 RMS(Cart)=  0.00000000 RMS(Int)=  0.00000000
 Variable       Old X    -DE/DX   Delta X   Delta X   Delta X     New X
                                 (Linear)    (Quad)   (Total)
    R1        2.94037   0.00000   0.00000   0.00000   0.00000   2.94037
    R2        2.08044   0.00000   0.00000   0.00000   0.00000   2.08044
    R3        2.08026   0.00000   0.00000   0.00000   0.00000   2.08026
    R4        2.08026   0.00000   0.00000   0.00000   0.00000   2.08026
    R5        2.94954   0.00000   0.00000   0.00000   0.00000   2.94954
    R6        2.08641   0.00000   0.00000   0.00000   0.00000   2.08641
    R7        2.08641   0.00000   0.00000   0.00000   0.00000   2.08641
    R8        2.94939   0.00000   0.00000   0.00000   0.00000   2.94939
    R9        2.08645   0.00000   0.00000   0.00000   0.00000   2.08645
   R10        2.08645   0.00000   0.00000   0.00000   0.00000   2.08645
   R11        2.94952   0.00000   0.00000   0.00000   0.00000   2.94952
   R12        2.08647   0.00000   0.00000   0.00000   0.00000   2.08647
   R13        2.08647   0.00000   0.00000   0.00000   0.00000   2.08647
   R14        2.94963   0.00000   0.00000   0.00000   0.00000   2.94963
   R15        2.08645   0.00000   0.00000   0.00000   0.00000   2.08645
   R16        2.08645   0.00000   0.00000   0.00000   0.00000   2.08645
   R17        2.94952   0.00000   0.00000   0.00000   0.00000   2.94952
   R18        2.08645   0.00000   0.00000   0.00000   0.00000   2.08645
   R19        2.08645   0.00000   0.00000   0.00000   0.00000   2.08645
   R20        2.94939   0.00000   0.00000   0.00000   0.00000   2.94939
   R21        2.08647   0.00000   0.00000   0.00000   0.00000   2.08647
   R22        2.08647   0.00000   0.00000   0.00000   0.00000   2.08647
   R23        2.94954   0.00000   0.00000   0.00000   0.00000   2.94954
   R24        2.08645   0.00000   0.00000   0.00000   0.00000   2.08645
   R25        2.08645   0.00000   0.00000   0.00000   0.00000   2.08645
   R26        2.94037   0.00000   0.00000   0.00000   0.00000   2.94037
   R27        2.08641   0.00000   0.00000   0.00000   0.00000   2.08641
   R28        2.08641   0.00000   0.00000   0.00000   0.00000   2.08641
   R29        2.08026   0.00000   0.00000   0.00000   0.00000   2.08026
   R30        2.08044   0.00000   0.00000   0.00000   0.00000   2.08044
   R31        2.08026   0.00000   0.00000   0.00000   0.00000   2.08026
    A1        1.93059   0.00000   0.00000   0.00000   0.00000   1.93059
    A2        1.93169   0.00000   0.00000   0.00000   0.00000   1.93170
    A3        1.93169   0.00000   0.00000   0.00000   0.00000   1.93170
    A4        1.89002   0.00000   0.00000   0.00000   0.00000   1.89002
    A5        1.89002   0.00000   0.00000   0.00000   0.00000   1.89002
    A6        1.88845   0.00000   0.00000   0.00000   0.00000   1.88845
    A7        1.96114   0.00000   0.00000   0.00000   0.00000   1.96115
    A8        1.90857   0.00000   0.00000   0.00000   0.00000   1.90857
    A9        1.90857   0.00000   0.00000   0.00000   0.00000   1.90857
   A10        1.90627   0.00000   0.00000   0.00000   0.00000   1.90627
   A11        1.90627   0.00000   0.00000   0.00000   0.00000   1.90627
   A12        1.87083   0.00000   0.00000   0.00000   0.00000   1.87083
   A13        1.96076   0.00000   0.00000   0.00000   0.00000   1.96076
   A14        1.90705   0.00000   0.00000   0.00000   0.00000   1.90705
   A15        1.90705   0.00000   0.00000   0.00000   0.00000   1.90705
   A16        1.90786   0.00000   0.00000   0.00000   0.00000   1.90786
   A17        1.90786   0.00000   0.00000   0.00000   0.00000   1.90786
   A18        1.87110   0.00000   0.00000   0.00000   0.00000   1.87110
   A19        1.96057   0.00000   0.00000   0.00000   0.00000   1.96057
   A20        1.90743   0.00000   0.00000   0.00000   0.00000   1.90743
   A21        1.90743   0.00000   0.00000   0.00000   0.00000   1.90743
   A22        1.90757   0.00000   0.00000   0.00000   0.00000   1.90757
   A23        1.90757   0.00000   0.00000   0.00000   0.00000   1.90757
   A24        1.87112   0.00000   0.00000   0.00000   0.00000   1.87112
   A25        1.96054   0.00000   0.00000   0.00000   0.00000   1.96054
   A26        1.90755   0.00000   0.00000   0.00000   0.00000   1.90755
   A27        1.90755   0.00000   0.00000   0.00000   0.00000   1.90755
   A28        1.90745   0.00000   0.00000   0.00000   0.00000   1.90745
   A29        1.90745   0.00000   0.00000   0.00000   0.00000   1.90745
   A30        1.87115   0.00000   0.00000   0.00000   0.00000   1.87115
   A31        1.96054   0.00000   0.00000   0.00000   0.00000   1.96054
   A32        1.90745   0.00000   0.00000   0.00000   0.00000   1.90745
   A33        1.90745   0.00000   0.00000   0.00000   0.00000   1.90745
   A34        1.90755   0.00000   0.00000   0.00000   0.00000   1.90755
   A35        1.90755   0.00000   0.00000   0.00000   0.00000   1.90755
   A36        1.87115   0.00000   0.00000   0.00000   0.00000   1.87115
   A37        1.96057   0.00000   0.00000   0.00000   0.00000   1.96057
   A38        1.90757   0.00000   0.00000   0.00000   0.00000   1.90757
   A39        1.90757   0.00000   0.00000   0.00000   0.00000   1.90757
   A40        1.90743   0.00000   0.00000   0.00000   0.00000   1.90743
   A41        1.90743   0.00000   0.00000   0.00000   0.00000   1.90743
   A42        1.87112   0.00000   0.00000   0.00000   0.00000   1.87112
   A43        1.96076   0.00000   0.00000   0.00000   0.00000   1.96076
   A44        1.90786   0.00000   0.00000   0.00000   0.00000   1.90786
   A45        1.90786   0.00000   0.00000   0.00000   0.00000   1.90786
   A46        1.90705   0.00000   0.00000   0.00000   0.00000   1.90705
   A47        1.90705   0.00000   0.00000   0.00000   0.00000   1.90705
   A48        1.87110   0.00000   0.00000   0.00000   0.00000   1.87110
   A49        1.96114   0.00000   0.00000   0.00000   0.00000   1.96115
   A50        1.90627   0.00000   0.00000   0.00000   0.00000   1.90627
   A51        1.90627   0.00000   0.00000   0.00000   0.00000   1.90627
   A52        1.90857   0.00000   0.00000   0.00000   0.00000   1.90857
   A53        1.90857   0.00000   0.00000   0.00000   0.00000   1.90856
   A54        1.87083   0.00000   0.00000   0.00000   0.00000   1.87083
   A55        1.93169   0.00000   0.00000   0.00000   0.00000   1.93170
   A56        1.93059   0.00000   0.00000   0.00000   0.00000   1.93059
   A57        1.93169   0.00000   0.00000   0.00000   0.00000   1.93170
   A58        1.89002   0.00000   0.00000   0.00000   0.00000   1.89002
   A59        1.88845   0.00000   0.00000   0.00000   0.00000   1.88845
   A60        1.89002   0.00000   0.00000   0.00000   0.00000   1.89002
    D1       -3.14158   0.00000   0.00000  -0.00001  -0.00001  -3.14159
    D2        1.02180   0.00000   0.00000  -0.00001  -0.00001   1.02180
    D3       -1.02179   0.00000   0.00000  -0.00001  -0.00001  -1.02179
    D4        1.04679   0.00000   0.00000  -0.00001  -0.00001   1.04678
    D5       -1.07300   0.00000   0.00000  -0.00001  -0.00001  -1.07301
    D6       -3.11660   0.00000   0.00000  -0.00001  -0.00001  -3.11660
    D7       -1.04678   0.00000   0.00000  -0.00001  -0.00001  -1.04678
    D8        3.11661   0.00000   0.00000  -0.00001  -0.00001   3.11660
    D9        1.07302   0.00000   0.00000  -0.00001  -0.00001   1.07301
   D10       -3.14159   0.00000   0.00000   0.00000   0.00000  -3.14159
   D11        1.02109   0.00000   0.00000   0.00000   0.00000   1.02109
   D12       -1.02109   0.00000   0.00000   0.00000   0.00000  -1.02109
   D13       -1.02049   0.00000   0.00000   0.00000   0.00000  -1.02049
   D14       -3.14099   0.00000   0.00000   0.00000   0.00000  -3.14099
   D15        1.10002   0.00000   0.00000   0.00000   0.00000   1.10002
   D16        1.02049   0.00000   0.00000   0.00000   0.00000   1.02049
   D17       -1.10002   0.00000   0.00000   0.00000   0.00000  -1.10002
   D18        3.14099   0.00000   0.00000   0.00000   0.00000   3.14099
   D19        3.14159   0.00000   0.00000   0.00000   0.00000  -3.14159
   D20        1.02132   0.00000   0.00000   0.00000   0.00000   1.02132
   D21       -1.02132   0.00000   0.00000   0.00000   0.00000  -1.02132
   D22       -1.02155   0.00000   0.00000   0.00000   0.00000  -1.02155
   D23        3.14136   0.00000   0.00000   0.00000   0.00000   3.14136
   D24        1.09872   0.00000   0.00000   0.00000   0.00000   1.09872
   D25        1.02155   0.00000   0.00000   0.00000   0.00000   1.02155
   D26       -1.09872   0.00000   0.00000   0.00000   0.00000  -1.09872
   D27       -3.14136   0.00000   0.00000   0.00000   0.00000  -3.14136
   D28        3.14159   0.00000   0.00000   0.00000   0.00000  -3.14159
   D29        1.02140   0.00000   0.00000   0.00000   0.00000   1.02141
   D30       -1.02141   0.00000   0.00000   0.00000   0.00000  -1.02140
   D31       -1.02140   0.00000   0.00000   0.00000   0.00000  -1.02140
   D32        3.14159   0.00000   0.00000   0.00000   0.00000  -3.14159
   D33        1.09878   0.00000   0.00000   0.00000   0.00000   1.09879
   D34        1.02140   0.00000   0.00000   0.00000   0.00000   1.02140
   D35       -1.09879   0.00000   0.00000   0.00000   0.00000  -1.09879
   D36        3.14159   0.00000   0.00000   0.00000   0.00000   3.14159
   D37        3.14159   0.00000   0.00000   0.00000   0.00000  -3.14159
   D38        1.02135   0.00000   0.00000   0.00000   0.00000   1.02135
   D39       -1.02135   0.00000   0.00000   0.00000   0.00000  -1.02135
   D40       -1.02135   0.00000   0.00000   0.00000   0.00000  -1.02135
   D41        3.14159   0.00000   0.00000   0.00000   0.00000  -3.14159
   D42        1.09889   0.00000   0.00000   0.00000   0.00000   1.09889
   D43        1.02135   0.00000   0.00000   0.00000   0.00000   1.02135
   D44       -1.09890   0.00000   0.00000   0.00000   0.00000  -1.09889
   D45        3.14159   0.00000   0.00000   0.00000   0.00000  -3.14159
   D46        3.14159   0.00000   0.00000   0.00000   0.00000  -3.14159
   D47        1.02140   0.00000   0.00000   0.00000   0.00000   1.02140
   D48       -1.02141   0.00000   0.00000   0.00000   0.00000  -1.02140
   D49       -1.02141   0.00000   0.00000   0.00000   0.00000  -1.02140
   D50        3.14159   0.00000   0.00000   0.00000   0.00000   3.14159
   D51        1.09878   0.00000   0.00000   0.00000   0.00000   1.09879
   D52        1.02140   0.00000   0.00000   0.00000   0.00000   1.02141
   D53       -1.09879   0.00000   0.00000   0.00001   0.00001  -1.09879
   D54        3.14159   0.00000   0.00000   0.00000   0.00000  -3.14159
   D55        3.14159   0.00000   0.00000   0.00000   0.00000  -3.14159
   D56        1.02155   0.00000   0.00000   0.00000   0.00000   1.02155
   D57       -1.02155   0.00000   0.00000   0.00000   0.00000  -1.02155
   D58       -1.02132   0.00000   0.00000   0.00000   0.00000  -1.02132
   D59       -3.14136   0.00000   0.00000   0.00000   0.00000  -3.14136
   D60        1.09872   0.00000   0.00000   0.00000   0.00000   1.09872
   D61        1.02132   0.00000   0.00000   0.00000   0.00000   1.02132
   D62       -1.09872   0.00000   0.00000   0.00000   0.00000  -1.09872
   D63        3.14136   0.00000   0.00000   0.00000   0.00000   3.14136
   D64        3.14159   0.00000   0.00000   0.00000   0.00000  -3.14159
   D65        1.02049   0.00000   0.00000   0.00000   0.00000   1.02049
   D66       -1.02049   0.00000   0.00000   0.00000   0.00000  -1.02048
   D67       -1.02109   0.00000   0.00000   0.00000   0.00000  -1.02109
   D68        3.14099   0.00000   0.00000   0.00000   0.00000   3.14099
   D69        1.10002   0.00000   0.00000   0.00000   0.00000   1.10002
   D70        1.02109   0.00000   0.00000   0.00000   0.00000   1.02109
   D71       -1.10002   0.00000   0.00000   0.00000   0.00000  -1.10001
   D72       -3.14099   0.00000   0.00000   0.00000   0.00000  -3.14099
   D73       -1.04677   0.00000   0.00000  -0.00002  -0.00002  -1.04678
   D74       -3.14157   0.00000   0.00000  -0.00002  -0.00002  -3.14159
   D75        1.04680   0.00000   0.00000  -0.00002  -0.00002   1.04679
   D76        1.07303   0.00000   0.00000  -0.00002  -0.00002   1.07301
   D77       -1.02178   0.00000   0.00000  -0.00002  -0.00002  -1.02179
   D78       -3.11659   0.00000   0.00000  -0.00002  -0.00002  -3.11660
   D79        3.11662   0.00000   0.00000  -0.00002  -0.00002   3.11661
   D80        1.02181   0.00000   0.00000  -0.00002  -0.00002   1.02180
   D81       -1.07299   0.00000   0.00000  -0.00002  -0.00002  -1.07301
         Item               Value     Threshold  Converged?
 Maximum Force            0.000000     0.000015     YES
 RMS     Force            0.000000     0.000010     YES
 Maximum Displacement     0.000029     0.000060     YES
 RMS     Displacement     0.000006     0.000040     YES
 Predicted change in Energy=-5.018139D-12
 Optimization completed.
    -- Stationary point found.
                           ----------------------------
                           !   Optimized Parameters   !
                           ! (Angstroms and Degrees)  !
 --------------------------                            --------------------------
 ! Name  Definition              Value          Derivative Info.                !
 --------------------------------------------------------------------------------
 ! R1    R(1,2)                  1.556          -DE/DX =    0.0                 !
 ! R2    R(1,11)                 1.1009         -DE/DX =    0.0                 !
 ! R3    R(1,12)                 1.1008         -DE/DX =    0.0                 !
 ! R4    R(1,13)                 1.1008         -DE/DX =    0.0                 !
 ! R5    R(2,3)                  1.5608         -DE/DX =    0.0                 !
 ! R6    R(2,14)                 1.1041         -DE/DX =    0.0                 !
 ! R7    R(2,15)                 1.1041         -DE/DX =    0.0                 !
 ! R8    R(3,4)                  1.5607         -DE/DX =    0.0                 !
 ! R9    R(3,16)                 1.1041         -DE/DX =    0.0                 !
 ! R10   R(3,17)                 1.1041         -DE/DX =    0.0                 !
 ! R11   R(4,5)                  1.5608         -DE/DX =    0.0                 !
 ! R12   R(4,18)                 1.1041         -DE/DX =    0.0                 !
 ! R13   R(4,19)                 1.1041         -DE/DX =    0.0                 !
 ! R14   R(5,6)                  1.5609         -DE/DX =    0.0                 !
 ! R15   R(5,20)                 1.1041         -DE/DX =    0.0                 !
 ! R16   R(5,21)                 1.1041         -DE/DX =    0.0                 !
 ! R17   R(6,7)                  1.5608         -DE/DX =    0.0                 !
 ! R18   R(6,22)                 1.1041         -DE/DX =    0.0                 !
 ! R19   R(6,23)                 1.1041         -DE/DX =    0.0                 !
 ! R20   R(7,8)                  1.5607         -DE/DX =    0.0                 !
 ! R21   R(7,24)                 1.1041         -DE/DX =    0.0                 !
 ! R22   R(7,25)                 1.1041         -DE/DX =    0.0                 !
 ! R23   R(8,9)                  1.5608         -DE/DX =    0.0                 !
 ! R24   R(8,26)                 1.1041         -DE/DX =    0.0                 !
 ! R25   R(8,27)                 1.1041         -DE/DX =    0.0                 !
 ! R26   R(9,10)                 1.556          -DE/DX =    0.0                 !
 ! R27   R(9,28)                 1.1041         -DE/DX =    0.0                 !
 ! R28   R(9,29)                 1.1041         -DE/DX =    0.0                 !
 ! R29   R(10,30)                1.1008         -DE/DX =    0.0                 !
 ! R30   R(10,31)                1.1009         -DE/DX =    0.0                 !
 ! R31   R(10,32)                1.1008         -DE/DX =    0.0                 !
 ! A1    A(2,1,11)             110.6144         -DE/DX =    0.0                 !
 ! A2    A(2,1,12)             110.678          -DE/DX =    0.0                 !
 ! A3    A(2,1,13)             110.678          -DE/DX =    0.0                 !
 ! A4    A(11,1,12)            108.29           -DE/DX =    0.0                 !
 ! A5    A(11,1,13)            108.29           -DE/DX =    0.0                 !
 ! A6    A(12,1,13)            108.2002         -DE/DX =    0.0                 !
 ! A7    A(1,2,3)              112.3653         -DE/DX =    0.0                 !
 ! A8    A(1,2,14)             109.3527         -DE/DX =    0.0                 !
 ! A9    A(1,2,15)             109.3528         -DE/DX =    0.0                 !
 ! A10   A(3,2,14)             109.2213         -DE/DX =    0.0                 !
 ! A11   A(3,2,15)             109.2213         -DE/DX =    0.0                 !
 ! A12   A(14,2,15)            107.1908         -DE/DX =    0.0                 !
 ! A13   A(2,3,4)              112.3433         -DE/DX =    0.0                 !
 ! A14   A(2,3,16)             109.266          -DE/DX =    0.0                 !
 ! A15   A(2,3,17)             109.266          -DE/DX =    0.0                 !
 ! A16   A(4,3,16)             109.3124         -DE/DX =    0.0                 !
 ! A17   A(4,3,17)             109.3124         -DE/DX =    0.0                 !
 ! A18   A(16,3,17)            107.2062         -DE/DX =    0.0                 !
 ! A19   A(3,4,5)              112.3324         -DE/DX =    0.0                 !
 ! A20   A(3,4,18)             109.2875         -DE/DX =    0.0                 !
 ! A21   A(3,4,19)             109.2875         -DE/DX =    0.0                 !
 ! A22   A(5,4,18)             109.2959         -DE/DX =    0.0                 !
 ! A23   A(5,4,19)             109.2959         -DE/DX =    0.0                 !
 ! A24   A(18,4,19)            107.2073         -DE/DX =    0.0                 !
 ! A25   A(4,5,6)              112.3305         -DE/DX =    0.0                 !
 ! A26   A(4,5,20)             109.2947         -DE/DX =    0.0                 !
 ! A27   A(4,5,21)             109.2947         -DE/DX =    0.0                 !
 ! A28   A(6,5,20)             109.2891         -DE/DX =    0.0                 !
 ! A29   A(6,5,21)             109.2891         -DE/DX =    0.0                 !
 ! A30   A(20,5,21)            107.2089         -DE/DX =    0.0                 !
 ! A31   A(5,6,7)              112.3305         -DE/DX =    0.0                 !
 ! A32   A(5,6,22)             109.2891         -DE/DX =    0.0                 !
 ! A33   A(5,6,23)             109.2891         -DE/DX =    0.0                 !
 ! A34   A(7,6,22)             109.2947         -DE/DX =    0.0                 !
 ! A35   A(7,6,23)             109.2947         -DE/DX =    0.0                 !
 ! A36   A(22,6,23)            107.2089         -DE/DX =    0.0                 !
 ! A37   A(6,7,8)              112.3325         -DE/DX =    0.0                 !
 ! A38   A(6,7,24)             109.2959         -DE/DX =    0.0                 !
 ! A39   A(6,7,25)             109.2959         -DE/DX =    0.0                 !
 ! A40   A(8,7,24)             109.2875         -DE/DX =    0.0                 !
 ! A41   A(8,7,25)             109.2875         -DE/DX =    0.0                 !
 ! A42   A(24,7,25)            107.2073         -DE/DX =    0.0                 !
 ! A43   A(7,8,9)              112.3433         -DE/DX =    0.0                 !
 ! A44   A(7,8,26)             109.3124         -DE/DX =    0.0                 !
 ! A45   A(7,8,27)             109.3124         -DE/DX =    0.0                 !
 ! A46   A(9,8,26)             109.266          -DE/DX =    0.0                 !
 ! A47   A(9,8,27)             109.266          -DE/DX =    0.0                 !
 ! A48   A(26,8,27)            107.2062         -DE/DX =    0.0                 !
 ! A49   A(8,9,10)             112.3653         -DE/DX =    0.0                 !
 ! A50   A(8,9,28)             109.2213         -DE/DX =    0.0                 !
 ! A51   A(8,9,29)             109.2213         -DE/DX =    0.0                 !
 ! A52   A(10,9,28)            109.3528         -DE/DX =    0.0                 !
 ! A53   A(10,9,29)            109.3527         -DE/DX =    0.0                 !
 ! A54   A(28,9,29)            107.1908         -DE/DX =    0.0                 !
 ! A55   A(9,10,30)            110.678          -DE/DX =    0.0                 !
 ! A56   A(9,10,31)            110.6144         -DE/DX =    0.0                 !
 ! A57   A(9,10,32)            110.678          -DE/DX =    0.0                 !
 ! A58   A(30,10,31)           108.29           -DE/DX =    0.0                 !
 ! A59   A(30,10,32)           108.2002         -DE/DX =    0.0                 !
 ! A60   A(31,10,32)           108.29           -DE/DX =    0.0                 !
[...]
 ! D25   D(17,3,4,5)            58.5306         -DE/DX =    0.0                 !
 ! D26   D(17,3,4,18)          -62.9522         -DE/DX =    0.0                 !
 ! D27   D(17,3,4,19)         -179.9865         -DE/DX =    0.0                 !
 ! D28   D(3,4,5,6)           -180.0002         -DE/DX =    0.0                 !
 ! D29   D(3,4,5,20)            58.522          -DE/DX =    0.0                 !
 ! D30   D(3,4,5,21)           -58.5224         -DE/DX =    0.0                 !
 ! D31   D(18,4,5,6)           -58.5222         -DE/DX =    0.0                 !
 ! D32   D(18,4,5,20)         -180.0            -DE/DX =    0.0                 !
 ! D33   D(18,4,5,21)           62.9556         -DE/DX =    0.0                 !
 ! D34   D(19,4,5,6)            58.5218         -DE/DX =    0.0                 !
 ! D35   D(19,4,5,20)          -62.956          -DE/DX =    0.0                 !
 ! D36   D(19,4,5,21)          179.9996         -DE/DX =    0.0                 !
 ! D37   D(4,5,6,7)           -180.0001         -DE/DX =    0.0                 !
 ! D38   D(4,5,6,22)            58.5189         -DE/DX =    0.0                 !
 ! D39   D(4,5,6,23)           -58.5191         -DE/DX =    0.0                 !
 ! D40   D(20,5,6,7)           -58.5191         -DE/DX =    0.0                 !
 ! D41   D(20,5,6,22)         -180.0001         -DE/DX =    0.0                 !
 ! D42   D(20,5,6,23)           62.9619         -DE/DX =    0.0                 !
 ! D43   D(21,5,6,7)            58.5189         -DE/DX =    0.0                 !
 ! D44   D(21,5,6,22)          -62.9621         -DE/DX =    0.0                 !
 ! D45   D(21,5,6,23)         -180.0001         -DE/DX =    0.0                 !
 ! D46   D(5,6,7,8)           -180.0002         -DE/DX =    0.0                 !
 ! D47   D(5,6,7,24)            58.5218         -DE/DX =    0.0                 !
 ! D48   D(5,6,7,25)           -58.5222         -DE/DX =    0.0                 !
 ! D49   D(22,6,7,8)           -58.5224         -DE/DX =    0.0                 !
 ! D50   D(22,6,7,24)          179.9996         -DE/DX =    0.0                 !
 ! D51   D(22,6,7,25)           62.9556         -DE/DX =    0.0                 !
 ! D52   D(23,6,7,8)            58.5219         -DE/DX =    0.0                 !
 ! D53   D(23,6,7,24)          -62.9561         -DE/DX =    0.0                 !
 ! D54   D(23,6,7,25)         -180.0001         -DE/DX =    0.0                 !
 ! D55   D(6,7,8,9)           -180.0            -DE/DX =    0.0                 !
 ! D56   D(6,7,8,26)            58.5307         -DE/DX =    0.0                 !
 ! D57   D(6,7,8,27)           -58.5307         -DE/DX =    0.0                 !
 ! D58   D(24,7,8,9)           -58.5172         -DE/DX =    0.0                 !
 ! D59   D(24,7,8,26)         -179.9865         -DE/DX =    0.0                 !
 ! D60   D(24,7,8,27)           62.9521         -DE/DX =    0.0                 !
 ! D61   D(25,7,8,9)            58.5172         -DE/DX =    0.0                 !
 ! D62   D(25,7,8,26)          -62.9521         -DE/DX =    0.0                 !
 ! D63   D(25,7,8,27)          179.9864         -DE/DX =    0.0                 !
 ! D64   D(7,8,9,10)          -180.0            -DE/DX =    0.0                 !
 ! D65   D(7,8,9,28)            58.4695         -DE/DX =    0.0                 !
 ! D66   D(7,8,9,29)           -58.4696         -DE/DX =    0.0                 !
 ! D67   D(26,8,9,10)          -58.5042         -DE/DX =    0.0                 !
 ! D68   D(26,8,9,28)          179.9653         -DE/DX =    0.0                 !
 ! D69   D(26,8,9,29)           63.0263         -DE/DX =    0.0                 !
 ! D70   D(27,8,9,10)           58.5042         -DE/DX =    0.0                 !
 ! D71   D(27,8,9,28)          -63.0263         -DE/DX =    0.0                 !
 ! D72   D(27,8,9,29)         -179.9654         -DE/DX =    0.0                 !
 ! D73   D(8,9,10,30)          -59.9753         -DE/DX =    0.0                 !
 ! D74   D(8,9,10,31)         -179.999          -DE/DX =    0.0                 !
 ! D75   D(8,9,10,32)           59.9774         -DE/DX =    0.0                 !
 ! D76   D(28,9,10,30)          61.4801         -DE/DX =    0.0                 !
 ! D77   D(28,9,10,31)         -58.5435         -DE/DX =    0.0                 !
 ! D78   D(28,9,10,32)        -178.5672         -DE/DX =    0.0                 !
 ! D79   D(29,9,10,30)         178.5693         -DE/DX =    0.0                 !
 ! D80   D(29,9,10,31)          58.5457         -DE/DX =    0.0                 !
 ! D81   D(29,9,10,32)         -61.478          -DE/DX =    0.0                 !
 --------------------------------------------------------------------------------
 GradGradGradGradGradGradGradGradGradGradGradGradGradGradGradGradGradGrad

                          Input orientation:                          
 ---------------------------------------------------------------------
 Center     Atomic      Atomic             Coordinates (Angstroms)
 Number     Number       Type             X           Y           Z
 ---------------------------------------------------------------------
      1          6           0        0.276843   -1.332131   -2.346709
      2          6           0        0.706055   -2.698422   -1.738363
      3          6           0        1.983366   -2.577751   -0.849481
      4          6           0        2.413432   -3.948500   -0.239541
      5          6           0        3.690743   -3.827541    0.649275
      6          6           0        4.120801   -5.198423    1.259245
      7          6           0        5.398115   -5.077463    2.148058
      8          6           0        5.828176   -6.448210    2.758007
      9          6           0        7.105490   -6.327539    3.646884
     10          6           0        7.534697   -7.693827    4.255240
     11          1           0       -0.624977   -1.450213   -2.967038
     12          1           0        1.078479   -0.918575   -2.977715
     13          1           0        0.055819   -0.604489   -1.550781
     14          1           0        0.897200   -3.418034   -2.553605
     15          1           0       -0.121917   -3.105046   -1.131636
     16          1           0        1.792805   -1.858721   -0.033563
     17          1           0        2.812041   -2.171746   -1.455697
     18          1           0        2.603648   -4.667271   -1.055781
     19          1           0        1.584397   -4.354241    0.366377
     20          1           0        3.500506   -3.108771    1.465502
     21          1           0        4.519760   -3.421808    0.043340
     22          1           0        4.311036   -5.917193    0.443018
     23          1           0        3.291786   -5.604155    1.865182
     24          1           0        5.207904   -4.358686    2.964293
     25          1           0        6.227151   -4.671731    1.542136
     26          1           0        6.018731   -7.167247    1.942093
     27          1           0        4.999501   -6.854208    3.364228
     28          1           0        6.914351   -5.607920    4.462121
     29          1           0        7.933462   -5.920924    3.040151
     30          1           0        6.733051   -8.107387    4.886229
     31          1           0        8.436505   -7.575739    4.875586
     32          1           0        7.755742   -8.421468    3.459316
 ---------------------------------------------------------------------
                    Distance matrix (angstroms):
                    1          2          3          4          5
     1  C    0.000000
     2  C    1.555976   0.000000
     3  C    2.589495   1.560832   0.000000
     4  C    3.981277   2.593126   1.560749   0.000000
     5  C    5.182443   3.985485   2.592949   1.560817   0.000000
     6  C    6.536600   5.186150   3.985383   2.593024   1.560875
     7  C    7.775466   6.540606   5.185972   3.985412   2.593023
     8  C    9.113161   7.779099   6.540412   5.185973   3.985383
     9  C   10.368591   9.117244   7.779098   6.540606   5.186149
    10  C   11.693304  10.368592   9.113161   7.775467   6.536600
    11  H    1.100923   2.199844   3.543846   4.786712   6.111862
    12  H    1.100825   2.200579   2.846237   4.296527   5.333016
    13  H    1.100825   2.200579   2.846229   4.296522   5.333009
    14  H    2.186010   1.104082   2.188577   2.816957   4.269663
    15  H    2.186010   1.104082   2.188577   2.816957   4.269663
    16  H    2.815330   2.189170   1.104102   2.189699   2.818633
    17  H    2.815330   2.189170   1.104102   2.189699   2.818632
    18  H    4.266577   2.818359   2.189384   1.104111   2.189553
    19  H    4.266578   2.818360   2.189384   1.104111   2.189553
    20  H    5.299189   4.271076   2.818305   2.189531   1.104104
    21  H    5.299192   4.271077   2.818308   2.189531   1.104104
    22  H    6.714171   5.302340   4.270887   2.818251   2.189510
    23  H    6.714171   5.302341   4.270887   2.818253   2.189510
    24  H    7.853798   6.718489   5.302287   4.271051   2.818368
    25  H    7.853802   6.718491   5.302291   4.271052   2.818372
    26  H    9.241845   7.857524   6.718671   5.302645   4.271363
    27  H    9.241842   7.857523   6.718668   5.302644   4.271361
    28  H   10.425883   9.244139   7.855549   6.716960   5.300866
    29  H   10.425887   9.244141   7.855552   6.716961   5.300868
    30  H   11.828023  10.462639   9.275492   7.888533   6.747184
    31  H   12.558833  11.282394   9.969919   8.694756   7.377869
    32  H   11.828041  10.462658   9.275510   7.888552   6.747200
                    6          7          8          9         10
     6  C    0.000000
     7  C    1.560817   0.000000
     8  C    2.592949   1.560749   0.000000
     9  C    3.985485   2.593126   1.560832   0.000000
    10  C    5.182443   3.981277   2.589495   1.555976   0.000000
    11  H    7.377869   8.694756   9.969920  11.282393  12.558834
    12  H    6.747195   7.888545   9.275505  10.462651  11.828036
    13  H    6.747189   7.888538   9.275496  10.462642  11.828027
    14  H    5.300869   6.716961   7.855553   9.244141  10.425888
    15  H    5.300868   6.716961   7.855551   9.244140  10.425886
    16  H    4.271362   5.302644   6.718668   7.857522   9.241841
    17  H    4.271363   5.302643   6.718670   7.857522   9.241844
    18  H    2.818372   4.271052   5.302292   6.718492   7.853804
    19  H    2.818369   4.271051   5.302289   6.718490   7.853800
    20  H    2.189510   2.818253   4.270886   5.302339   6.714170
    21  H    2.189510   2.818251   4.270887   5.302339   6.714171
    22  H    1.104104   2.189531   2.818309   4.271078   5.299194
    23  H    1.104104   2.189531   2.818305   4.271076   5.299190
    24  H    2.189553   1.104111   2.189384   2.818359   4.266577
    25  H    2.189552   1.104111   2.189384   2.818358   4.266577
    26  H    2.818633   2.189699   1.104102   2.189170   2.815331
    27  H    2.818633   2.189700   1.104102   2.189170   2.815330
    28  H    4.269663   2.816957   2.188577   1.104082   2.186010
    29  H    4.269663   2.816957   2.188577   1.104082   2.186010
    30  H    5.333005   4.296519   2.846225   2.200579   1.100825
    31  H    6.111862   4.786712   3.543846   2.199844   1.100923
    32  H    5.333022   4.296530   2.846242   2.200579   1.100825
                   11         12         13         14         15
    11  H    0.000000
    12  H    1.784521   0.000000
    13  H    1.784521   1.783431   0.000000
    14  H    2.521957   2.541658   3.103161   0.000000
    15  H    2.521952   3.103161   2.541664   1.777233   0.000000
    16  H    3.823326   3.172092   2.625294   3.095832   2.534808
    17  H    3.823330   2.625302   3.172080   2.534807   3.095832
    18  H    4.942306   4.480256   4.821064   2.591531   3.142452
    19  H    4.942304   4.821069   4.480255   3.142454   2.591532
    20  H    6.278362   5.514104   5.218741   4.798548   4.457251
    21  H    6.278367   5.218751   5.514098   4.457250   4.798550
    22  H    7.479748   6.865641   7.092738   5.184576   5.480765
    23  H    7.479747   7.092745   6.865634   5.480770   5.184576
    24  H    8.812628   8.012114   7.811777   7.064997   6.837780
    25  H    8.812632   7.811789   8.012111   6.837779   7.065000
    26  H   10.046040   9.362505   9.530283   7.778045   7.978525
    27  H   10.046036   9.530288   9.362494   7.978528   7.778042
    28  H   11.371912  10.554549  10.403305   9.498532   9.330785
    29  H   11.371916  10.403317  10.554544   9.330785   9.498532
    30  H   12.654341  12.062123  11.929543  10.554540  10.403303
    31  H   13.458799  12.654356  12.654344  11.371917  11.371913
    32  H   12.654362  11.929569  12.062133  10.403325  10.554558
                   16         17         18         19         20
    16  H    0.000000
    17  H    1.777440   0.000000
    18  H    3.096829   2.535943   0.000000
    19  H    2.535943   3.096829   1.777468   0.000000
    20  H    2.593466   3.144106   3.096796   2.535891   0.000000
    21  H    3.144112   2.593468   2.535889   3.096796   1.777474
    22  H    4.799981   4.458754   2.593045   3.143765   3.096719
    23  H    4.458750   4.799982   3.143773   2.593044   2.535793
    24  H    5.186508   5.482625   4.799830   4.458586   2.593043
    25  H    5.482634   5.186512   4.458583   4.799831   3.143773
    26  H    7.066974   6.839801   5.186514   5.482628   4.799982
    27  H    6.839793   7.066973   5.482635   5.186510   4.458749
    28  H    7.778039   7.978522   7.064999   6.837780   5.184574
    29  H    7.978527   7.778043   6.837780   7.064998   5.480769
    30  H    9.362490   9.530278   8.012107   7.811774   6.865631
    31  H   10.046034  10.046039   8.812634   8.812628   7.479743
    32  H    9.530292   9.362508   7.811797   8.012123   7.092748
                   21         22         23         24         25
    21  H    0.000000
    22  H    2.535795   0.000000
    23  H    3.096719   1.777474   0.000000
    24  H    3.143764   3.096796   2.535892   0.000000
    25  H    2.593044   2.535889   3.096796   1.777468   0.000000
    26  H    4.458755   2.593469   3.144107   3.096829   2.535943
    27  H    4.799981   3.144113   2.593466   2.535943   3.096829
    28  H    5.480764   4.798550   4.457251   2.591531   3.142452
    29  H    5.184575   4.457251   4.798548   3.142453   2.591531
    30  H    7.092734   5.514094   5.218736   4.480253   4.821061
    31  H    7.479748   6.278370   6.278361   4.942301   4.942307
    32  H    6.865644   5.218759   5.514111   4.821071   4.480257
                   26         27         28         29         30
    26  H    0.000000
    27  H    1.777440   0.000000
    28  H    3.095832   2.534808   0.000000
    29  H    2.534807   3.095832   1.777233   0.000000
    30  H    3.172074   2.625289   2.541668   3.103162   0.000000
    31  H    3.823333   3.823324   2.521948   2.521961   1.784521
    32  H    2.625308   3.172099   3.103161   2.541654   1.783431
                   31         32
    31  H    0.000000
    32  H    1.784521   0.000000
 Stoichiometry    C10H22
 Framework group  C1[X(C10H22)]
 Deg. of freedom    90
 Full point group                 C1      NOp   1
 Largest Abelian subgroup         C1      NOp   1
 Largest concise Abelian subgroup C1      NOp   1
                         Standard orientation:                         
 ---------------------------------------------------------------------
 Center     Atomic      Atomic             Coordinates (Angstroms)
 Number     Number       Type             X           Y           Z
 ---------------------------------------------------------------------
      1          6           0       -5.839339   -0.292340   -0.000004
      2          6           0       -4.526237    0.542419    0.000001
      3          6           0       -3.250653   -0.357071   -0.000002
      4          6           0       -1.933844    0.480755    0.000003
      5          6           0       -0.658443   -0.418968    0.000001
      6          6           0        0.658443    0.418970    0.000002
      7          6           0        1.933844   -0.480754    0.000004
      8          6           0        3.250654    0.357071   -0.000001
      9          6           0        4.526236   -0.542420    0.000001
     10          6           0        5.839339    0.292337   -0.000005
     11          1           0       -6.719259    0.369303   -0.000010
     12          1           0       -5.890922   -0.935766    0.891713
     13          1           0       -5.890913   -0.935770   -0.891718
     14          1           0       -4.509103    1.197445    0.888621
     15          1           0       -4.509102    1.197454   -0.888612
     16          1           0       -3.266728   -1.012016   -0.888725
     17          1           0       -3.266730   -1.012024    0.888715
     18          1           0       -1.918308    1.135711    0.888740
     19          1           0       -1.918305    1.135718   -0.888729
     20          1           0       -0.674001   -1.073909   -0.888736
     21          1           0       -0.674001   -1.073911    0.888738
     22          1           0        0.674000    1.073913    0.888739
     23          1           0        0.674002    1.073912   -0.888735
     24          1           0        1.918305   -1.135717   -0.888728
     25          1           0        1.918307   -1.135709    0.888741
     26          1           0        3.266731    1.012024    0.888716
     27          1           0        3.266729    1.012017   -0.888724
     28          1           0        4.509100   -1.197455   -0.888612
     29          1           0        4.509103   -1.197446    0.888621
     30          1           0        5.890909    0.935775   -0.891713
     31          1           0        6.719258   -0.369307   -0.000022
     32          1           0        5.890929    0.935756    0.891717
 ---------------------------------------------------------------------
 Rotational constants (GHZ):      8.2266065      0.2462511      0.2427558
 1\1\GINC-MW\FOpt\RB3LYP\STO-3G\C10H22\BING\25-Feb-2019\0\\# opt(tight)
  b3lyp/sto-3g\\c10h22\\0,1\C,0.27684319,-1.33213053,-2.34670948\C,0.70
 605483,-2.69842168,-1.73836262\C,1.98336601,-2.57775099,-0.84948121\C,
 2.41343231,-3.94850045,-0.23954066\C,3.69074342,-3.82754088,0.64927517
 \C,4.12080147,-5.19842295,1.2592445\C,5.39811453,-5.07746332,2.1480575
 3\C,5.82817592,-6.44821041,2.75800683\C,7.10549025,-6.32753901,3.64688
 364\C,7.53469745,-7.69382742,4.25523974\H,-0.62497733,-1.45021308,-2.9
 6703783\H,1.07847917,-0.91857527,-2.97771496\H,0.05581916,-0.60448902,
 -1.55078086\H,0.89720047,-3.41803357,-2.55360479\H,-0.12191715,-3.1050
 4552,-1.13163601\H,1.79280474,-1.85872093,-0.03356304\H,2.81204093,-2.
 17174559,-1.45569719\H,2.6036477,-4.66727119,-1.05578096\H,1.58439673,
 -4.35424086,0.36637702\H,3.50050627,-3.10877118,1.46550158\H,4.5197603
 8,-3.42180819,0.04333996\H,4.31103648,-5.91719325,0.44301811\H,3.29178
 552,-5.60415478,1.86518169\H,5.20790376,-4.35868604,2.96429315\H,6.227
 15095,-4.67173089,1.54213566\H,6.01873126,-7.16724734,1.94209329\H,4.9
 9950101,-6.85420751,3.36422837\H,6.91435067,-5.60791966,4.46212065\H,7
 .93346232,-5.92092407,3.0401512\H,6.73305105,-8.10738702,4.88622917\H,
 8.43650468,-7.57573932,4.87558635\H,7.75574186,-8.42146806,3.45931601\
 \Version=ES64L-G09RevD.01\State=1-A\HF=-389.6712288\RMSD=3.820e-09\RMS
 F=1.105e-07\Dipole=0.0000003,0.,-0.0000003\Quadrupole=0.0438399,-0.305
 2816,0.2614417,0.2420888,-0.5621204,0.4066259\PG=C01 [X(C10H22)]\\@


 I DO NOT DEFINE TIME, SPACE, PLACE, AND MOTION, AS BEING WELL KNOWN TO ALL.
                                            -- NEWTON (1642-1726), PRINCIPIA
 Job cpu time:       0 days  0 hours  1 minutes  1.7 seconds.
 File lengths (MBytes):  RWF=      5 Int=      0 D2E=      0 Chk=      2 Scr=      1
 Normal termination of Gaussian 09 at Mon Feb 25 22:30:46 2019.
