 Entering Gaussian System, Link 0=g09
 Input=c12h26.com
 Output=c12h26.out
 Initial command:
 /home/bing/src/g09_d.01/g09/l1.exe "/data/trash/Gau-7047.inp" -scrdir="/data/trash/"
 Entering Link 1 = /home/bing/src/g09_d.01/g09/l1.exe PID=      7049.
  
 Copyright (c) 1988,1990,1992,1993,1995,1998,2003,2009,2013,
            Gaussian, Inc.  All Rights Reserved.
  
 This is part of the Gaussian(R) 09 program.  It is based on
 the Gaussian(R) 03 system (copyright 2003, Gaussian, Inc.),
 the Gaussian(R) 98 system (copyright 1998, Gaussian, Inc.),
 the Gaussian(R) 94 system (copyright 1995, Gaussian, Inc.),
 the Gaussian 92(TM) system (copyright 1992, Gaussian, Inc.),
 the Gaussian 90(TM) system (copyright 1990, Gaussian, Inc.),
 the Gaussian 88(TM) system (copyright 1988, Gaussian, Inc.),
 the Gaussian 86(TM) system (copyright 1986, Carnegie Mellon
 University), and the Gaussian 82(TM) system (copyright 1983,
 Carnegie Mellon University). Gaussian is a federally registered
 trademark of Gaussian, Inc.
  
 This software contains proprietary and confidential information,
 including trade secrets, belonging to Gaussian, Inc.
  
 This software is provided under written license and may be
 used, copied, transmitted, or stored only in accord with that
 written license.
  
 The following legend is applicable only to US Government
 contracts under FAR:
  
                    RESTRICTED RIGHTS LEGEND
  
 Use, reproduction and disclosure by the US Government is
 subject to restrictions as set forth in subparagraphs (a)
 and (c) of the Commercial Computer Software - Restricted
 Rights clause in FAR 52.227-19.
  
 Gaussian, Inc.
 340 Quinnipiac St., Bldg. 40, Wallingford CT 06492
  
  
 ---------------------------------------------------------------
 Warning -- This program may not be used in any manner that
 competes with the business of Gaussian, Inc. or will provide
 assistance to any competitor of Gaussian, Inc.  The licensee
 of this program is prohibited from giving any competitor of
 Gaussian, Inc. access to this program.  By using this program,
 the user acknowledges that Gaussian, Inc. is engaged in the
 business of creating and licensing software in the field of
 computational chemistry and represents and warrants to the
 licensee that it is not a competitor of Gaussian, Inc. and that
 it will not use this program in any manner prohibited above.
 ---------------------------------------------------------------
  

 Cite this work as:
 Gaussian 09, Revision D.01,
 M. J. Frisch, G. W. Trucks, H. B. Schlegel, G. E. Scuseria, 
 M. A. Robb, J. R. Cheeseman, G. Scalmani, V. Barone, B. Mennucci, 
 G. A. Petersson, H. Nakatsuji, M. Caricato, X. Li, H. P. Hratchian, 
 A. F. Izmaylov, J. Bloino, G. Zheng, J. L. Sonnenberg, M. Hada, 
 M. Ehara, K. Toyota, R. Fukuda, J. Hasegawa, M. Ishida, T. Nakajima, 
 Y. Honda, O. Kitao, H. Nakai, T. Vreven, J. A. Montgomery, Jr., 
 J. E. Peralta, F. Ogliaro, M. Bearpark, J. J. Heyd, E. Brothers, 
 K. N. Kudin, V. N. Staroverov, T. Keith, R. Kobayashi, J. Normand, 
 K. Raghavachari, A. Rendell, J. C. Burant, S. S. Iyengar, J. Tomasi, 
 M. Cossi, N. Rega, J. M. Millam, M. Klene, J. E. Knox, J. B. Cross, 
 V. Bakken, C. Adamo, J. Jaramillo, R. Gomperts, R. E. Stratmann, 
 O. Yazyev, A. J. Austin, R. Cammi, C. Pomelli, J. W. Ochterski, 
 R. L. Martin, K. Morokuma, V. G. Zakrzewski, G. A. Voth, 
 P. Salvador, J. J. Dannenberg, S. Dapprich, A. D. Daniels, 
 O. Farkas, J. B. Foresman, J. V. Ortiz, J. Cioslowski, 
 and D. J. Fox, Gaussian, Inc., Wallingford CT, 2013.
 
 ******************************************
 Gaussian 09:  ES64L-G09RevD.01 24-Apr-2013
                25-Feb-2019 
 ******************************************
 %nproc=6
 Will use up to    6 processors via shared memory.
 -------------------------
 # opt(tight) b3lyp/sto-3g
 -------------------------
 1/7=10,14=-1,18=20,19=15,26=3,38=1/1,3;
 2/9=110,12=2,17=6,18=5,40=1/2;
 3/6=3,11=2,16=1,25=1,30=1,71=1,74=-5/1,2,3;
 4//1;
 5/5=2,38=5/2;
 6/7=2,8=2,9=2,10=2,28=1/1;
 7//1,2,3,16;
 1/7=10,14=-1,18=20,19=15,26=3/3(2);
 2/9=110/2;
 99//99;
 2/9=110/2;
 3/6=3,11=2,16=1,25=1,30=1,71=1,74=-5/1,2,3;
 4/5=5,16=3,69=1/1;
 5/5=2,38=5/2;
 7//1,2,3,16;
 1/7=10,14=-1,18=20,19=15,26=3/3(-5);
 2/9=110/2;
 6/7=2,8=2,9=2,10=2,19=2,28=1/1;
 99/9=1/99;
 ------
 c12h26
 ------
 Symbolic Z-matrix:
 Charge =  0 Multiplicity = 1
 C                     0.06434  -1.14718  -2.52267 
 C                     0.48905  -2.51852  -1.92259 
 C                     1.76659  -2.40731  -1.03278 
 C                     2.19222  -3.78308  -0.43108 
 C                     3.46977  -3.67149   0.45864 
 C                     3.89546  -5.04736   1.0604 
 C                     5.17303  -4.9357    1.95013 
 C                     5.59871  -6.31157   2.55188 
 C                     6.87626  -6.2       3.44161 
 C                     7.30188  -7.57579   4.04329 
 C                     8.57941  -7.46461   4.93309 
 C                     9.0041   -8.83597   5.53315 
 H                    -0.83774  -1.25856  -3.14387 
 H                     0.86744  -0.73237  -3.15098 
 H                    -0.15447  -0.42371  -1.72234 
 H                     0.67806  -3.23378  -2.74215 
 H                    -0.34031  -2.92619  -1.31846 
 H                     1.57815  -1.69263  -0.21257 
 H                     2.59664  -2.00025  -1.63641 
 H                     2.38033  -4.49751  -1.25161 
 H                     1.36183  -4.18988   0.17226 
 H                     3.28163  -2.95705   1.27915 
 H                     4.30013  -3.26468  -0.14472 
 H                     4.0836   -5.76179   0.23989 
 H                     3.06509  -5.45416   1.66377 
 H                     4.98489  -4.22127   2.77064 
 H                     6.0034   -4.5289    1.34676 
 H                     5.78685  -7.026     1.73137 
 H                     4.76835  -6.71837   3.15524 
 H                     6.68816  -5.48558   4.26214 
 H                     7.70666  -5.79321   2.83827 
 H                     7.4903   -8.29046   3.22306 
 H                     6.47182  -7.98284   4.64691 
 H                     8.39042  -6.74936   5.75266 
 H                     9.40878  -7.05695   4.32897 
 H                     9.2229   -9.55943   4.73281 
 H                     8.20099  -9.25077   6.16145 
 H                     9.90618  -8.72463   6.15435 
 

 GradGradGradGradGradGradGradGradGradGradGradGradGradGradGradGradGradGrad
 Berny optimization.
 Initialization pass.
                           ----------------------------
                           !    Initial Parameters    !
                           ! (Angstroms and Degrees)  !
 --------------------------                            --------------------------
 ! Name  Definition              Value          Derivative Info.                !
 --------------------------------------------------------------------------------
 ! R1    R(1,2)                  1.556          estimate D2E/DX2                !
 ! R2    R(1,13)                 1.1009         estimate D2E/DX2                !
 ! R3    R(1,14)                 1.1008         estimate D2E/DX2                !
 ! R4    R(1,15)                 1.1008         estimate D2E/DX2                !
 ! R5    R(2,3)                  1.5608         estimate D2E/DX2                !
 ! R6    R(2,16)                 1.1041         estimate D2E/DX2                !
 ! R7    R(2,17)                 1.1041         estimate D2E/DX2                !
 ! R8    R(3,4)                  1.5608         estimate D2E/DX2                !
 ! R9    R(3,18)                 1.1041         estimate D2E/DX2                !
 ! R10   R(3,19)                 1.1041         estimate D2E/DX2                !
 ! R11   R(4,5)                  1.5608         estimate D2E/DX2                !
 ! R12   R(4,20)                 1.1041         estimate D2E/DX2                !
 ! R13   R(4,21)                 1.1041         estimate D2E/DX2                !
 ! R14   R(5,6)                  1.5609         estimate D2E/DX2                !
 ! R15   R(5,22)                 1.1041         estimate D2E/DX2                !
 ! R16   R(5,23)                 1.1041         estimate D2E/DX2                !
 ! R17   R(6,7)                  1.5609         estimate D2E/DX2                !
 ! R18   R(6,24)                 1.1041         estimate D2E/DX2                !
 ! R19   R(6,25)                 1.1041         estimate D2E/DX2                !
 ! R20   R(7,8)                  1.5609         estimate D2E/DX2                !
 ! R21   R(7,26)                 1.1041         estimate D2E/DX2                !
 ! R22   R(7,27)                 1.1041         estimate D2E/DX2                !
 ! R23   R(8,9)                  1.5608         estimate D2E/DX2                !
 ! R24   R(8,28)                 1.1041         estimate D2E/DX2                !
 ! R25   R(8,29)                 1.1041         estimate D2E/DX2                !
 ! R26   R(9,10)                 1.5608         estimate D2E/DX2                !
 ! R27   R(9,30)                 1.1041         estimate D2E/DX2                !
 ! R28   R(9,31)                 1.1041         estimate D2E/DX2                !
 ! R29   R(10,11)                1.5608         estimate D2E/DX2                !
 ! R30   R(10,32)                1.1041         estimate D2E/DX2                !
 ! R31   R(10,33)                1.1041         estimate D2E/DX2                !
 ! R32   R(11,12)                1.556          estimate D2E/DX2                !
 ! R33   R(11,34)                1.1041         estimate D2E/DX2                !
 ! R34   R(11,35)                1.1041         estimate D2E/DX2                !
 ! R35   R(12,36)                1.1008         estimate D2E/DX2                !
 ! R36   R(12,37)                1.1008         estimate D2E/DX2                !
 ! R37   R(12,38)                1.1009         estimate D2E/DX2                !
 ! A1    A(2,1,13)             110.6162         estimate D2E/DX2                !
 ! A2    A(2,1,14)             110.6768         estimate D2E/DX2                !
 ! A3    A(2,1,15)             110.6768         estimate D2E/DX2                !
 ! A4    A(13,1,14)            108.2906         estimate D2E/DX2                !
 ! A5    A(13,1,15)            108.2906         estimate D2E/DX2                !
 ! A6    A(14,1,15)            108.1996         estimate D2E/DX2                !
 ! A7    A(1,2,3)              112.363          estimate D2E/DX2                !
 ! A8    A(1,2,16)             109.3543         estimate D2E/DX2                !
 ! A9    A(1,2,17)             109.3543         estimate D2E/DX2                !
 ! A10   A(3,2,16)             109.2209         estimate D2E/DX2                !
 ! A11   A(3,2,17)             109.2208         estimate D2E/DX2                !
 ! A12   A(16,2,17)            107.1911         estimate D2E/DX2                !
 ! A13   A(2,3,4)              112.3449         estimate D2E/DX2                !
 ! A14   A(2,3,18)             109.2646         estimate D2E/DX2                !
 ! A15   A(2,3,19)             109.2646         estimate D2E/DX2                !
 ! A16   A(4,3,18)             109.3131         estimate D2E/DX2                !
 ! A17   A(4,3,19)             109.3131         estimate D2E/DX2                !
 ! A18   A(18,3,19)            107.2058         estimate D2E/DX2                !
 ! A19   A(3,4,5)              112.3308         estimate D2E/DX2                !
 ! A20   A(3,4,20)             109.2889         estimate D2E/DX2                !
 ! A21   A(3,4,21)             109.2889         estimate D2E/DX2                !
 ! A22   A(5,4,20)             109.2955         estimate D2E/DX2                !
 ! A23   A(5,4,21)             109.2954         estimate D2E/DX2                !
 ! A24   A(20,4,21)            107.2073         estimate D2E/DX2                !
 ! A25   A(4,5,6)              112.3317         estimate D2E/DX2                !
 ! A26   A(4,5,22)             109.2933         estimate D2E/DX2                !
 ! A27   A(4,5,23)             109.2933         estimate D2E/DX2                !
 ! A28   A(6,5,22)             109.29           estimate D2E/DX2                !
 ! A29   A(6,5,23)             109.29           estimate D2E/DX2                !
 ! A30   A(22,5,23)            107.2085         estimate D2E/DX2                !
 ! A31   A(5,6,7)              112.3292         estimate D2E/DX2                !
 ! A32   A(5,6,24)             109.2898         estimate D2E/DX2                !
 ! A33   A(5,6,25)             109.2899         estimate D2E/DX2                !
 ! A34   A(7,6,24)             109.2945         estimate D2E/DX2                !
 ! A35   A(7,6,25)             109.2946         estimate D2E/DX2                !
 ! A36   A(24,6,25)            107.2089         estimate D2E/DX2                !
 ! A37   A(6,7,8)              112.3288         estimate D2E/DX2                !
 ! A38   A(6,7,26)             109.2947         estimate D2E/DX2                !
 ! A39   A(6,7,27)             109.2946         estimate D2E/DX2                !
 ! A40   A(8,7,26)             109.29           estimate D2E/DX2                !
 ! A41   A(8,7,27)             109.2899         estimate D2E/DX2                !
 ! A42   A(26,7,27)            107.209          estimate D2E/DX2                !
 ! A43   A(7,8,9)              112.3321         estimate D2E/DX2                !
 ! A44   A(7,8,28)             109.2899         estimate D2E/DX2                !
 ! A45   A(7,8,29)             109.2899         estimate D2E/DX2                !
 ! A46   A(9,8,28)             109.2932         estimate D2E/DX2                !
 ! A47   A(9,8,29)             109.2932         estimate D2E/DX2                !
 ! A48   A(28,8,29)            107.2085         estimate D2E/DX2                !
 ! A49   A(8,9,10)             112.3305         estimate D2E/DX2                !
 ! A50   A(8,9,30)             109.2955         estimate D2E/DX2                !
 ! A51   A(8,9,31)             109.2956         estimate D2E/DX2                !
 ! A52   A(10,9,30)            109.289          estimate D2E/DX2                !
 ! A53   A(10,9,31)            109.2889         estimate D2E/DX2                !
 ! A54   A(30,9,31)            107.2073         estimate D2E/DX2                !
 ! A55   A(9,10,11)            112.3452         estimate D2E/DX2                !
 ! A56   A(9,10,32)            109.313          estimate D2E/DX2                !
 ! A57   A(9,10,33)            109.313          estimate D2E/DX2                !
 ! A58   A(11,10,32)           109.2645         estimate D2E/DX2                !
 ! A59   A(11,10,33)           109.2646         estimate D2E/DX2                !
 ! A60   A(32,10,33)           107.2058         estimate D2E/DX2                !
 ! A61   A(10,11,12)           112.3628         estimate D2E/DX2                !
 ! A62   A(10,11,34)           109.2208         estimate D2E/DX2                !
 ! A63   A(10,11,35)           109.2209         estimate D2E/DX2                !
 ! A64   A(12,11,34)           109.3544         estimate D2E/DX2                !
 ! A65   A(12,11,35)           109.3544         estimate D2E/DX2                !
 ! A66   A(34,11,35)           107.1911         estimate D2E/DX2                !
 ! A67   A(11,12,36)           110.6768         estimate D2E/DX2                !
 ! A68   A(11,12,37)           110.6768         estimate D2E/DX2                !
 ! A69   A(11,12,38)           110.6163         estimate D2E/DX2                !
 ! A70   A(36,12,37)           108.1996         estimate D2E/DX2                !
 ! A71   A(36,12,38)           108.2906         estimate D2E/DX2                !
 ! A72   A(37,12,38)           108.2906         estimate D2E/DX2                !
 ! D1    D(13,1,2,3)          -179.9998         estimate D2E/DX2                !
 ! D2    D(13,1,2,16)           58.5458         estimate D2E/DX2                !
 ! D3    D(13,1,2,17)          -58.5456         estimate D2E/DX2                !
 ! D4    D(14,1,2,3)            59.9754         estimate D2E/DX2                !
 ! D5    D(14,1,2,16)          -61.479          estimate D2E/DX2                !
 ! D6    D(14,1,2,17)         -178.5703         estimate D2E/DX2                !
 ! D7    D(15,1,2,3)           -59.9751         estimate D2E/DX2                !
 ! D8    D(15,1,2,16)          178.5705         estimate D2E/DX2                !
 ! D9    D(15,1,2,17)           61.4792         estimate D2E/DX2                !
 ! D10   D(1,2,3,4)           -180.0            estimate D2E/DX2                !
 ! D11   D(1,2,3,18)            58.5032         estimate D2E/DX2                !
 ! D12   D(1,2,3,19)           -58.5032         estimate D2E/DX2                !
 ! D13   D(16,2,3,4)           -58.4693         estimate D2E/DX2                !
 ! D14   D(16,2,3,18)         -179.9662         estimate D2E/DX2                !
 ! D15   D(16,2,3,19)           63.0275         estimate D2E/DX2                !
 ! D16   D(17,2,3,4)            58.4694         estimate D2E/DX2                !
 ! D17   D(17,2,3,18)          -63.0274         estimate D2E/DX2                !
 ! D18   D(17,2,3,19)          179.9662         estimate D2E/DX2                !
 ! D19   D(2,3,4,5)            180.0            estimate D2E/DX2                !
 ! D20   D(2,3,4,20)            58.5179         estimate D2E/DX2                !
 ! D21   D(2,3,4,21)           -58.518          estimate D2E/DX2                !
 ! D22   D(18,3,4,5)           -58.5309         estimate D2E/DX2                !
 ! D23   D(18,3,4,20)          179.987          estimate D2E/DX2                !
 ! D24   D(18,3,4,21)           62.9512         estimate D2E/DX2                !
 ! D25   D(19,3,4,5)            58.5309         estimate D2E/DX2                !
 ! D26   D(19,3,4,20)          -62.9512         estimate D2E/DX2                !
 ! D27   D(19,3,4,21)         -179.987          estimate D2E/DX2                !
 ! D28   D(3,4,5,6)           -179.9999         estimate D2E/DX2                !
 ! D29   D(3,4,5,22)            58.5212         estimate D2E/DX2                !
 ! D30   D(3,4,5,23)           -58.5212         estimate D2E/DX2                !
 ! D31   D(20,4,5,6)           -58.5217         estimate D2E/DX2                !
 ! D32   D(20,4,5,22)          179.9995         estimate D2E/DX2                !
 ! D33   D(20,4,5,23)           62.9571         estimate D2E/DX2                !
 ! D34   D(21,4,5,6)            58.5217         estimate D2E/DX2                !
 ! D35   D(21,4,5,22)          -62.9571         estimate D2E/DX2                !
 ! D36   D(21,4,5,23)         -179.9995         estimate D2E/DX2                !
 ! D37   D(4,5,6,7)            179.9999         estimate D2E/DX2                !
 ! D38   D(4,5,6,24)            58.5194         estimate D2E/DX2                !
 ! D39   D(4,5,6,25)           -58.5196         estimate D2E/DX2                !
 ! D40   D(22,5,6,7)           -58.5194         estimate D2E/DX2                !
 ! D41   D(22,5,6,24)         -179.9999         estimate D2E/DX2                !
 ! D42   D(22,5,6,25)           62.9612         estimate D2E/DX2                !
 ! D43   D(23,5,6,7)            58.5192         estimate D2E/DX2                !
 ! D44   D(23,5,6,24)          -62.9613         estimate D2E/DX2                !
 ! D45   D(23,5,6,25)          179.9998         estimate D2E/DX2                !
 ! D46   D(5,6,7,8)           -179.9999         estimate D2E/DX2                !
 ! D47   D(5,6,7,26)            58.5223         estimate D2E/DX2                !
 ! D48   D(5,6,7,27)           -58.5222         estimate D2E/DX2                !
 ! D49   D(24,6,7,8)           -58.5221         estimate D2E/DX2                !
 ! D50   D(24,6,7,26)         -179.9999         estimate D2E/DX2                !
 ! D51   D(24,6,7,27)           62.9556         estimate D2E/DX2                !
 ! D52   D(25,6,7,8)            58.5222         estimate D2E/DX2                !
 ! D53   D(25,6,7,26)          -62.9556         estimate D2E/DX2                !
 ! D54   D(25,6,7,27)          179.9999         estimate D2E/DX2                !
 ! D55   D(6,7,8,9)            179.9999         estimate D2E/DX2                !
 ! D56   D(6,7,8,28)            58.5192         estimate D2E/DX2                !
 ! D57   D(6,7,8,29)           -58.5193         estimate D2E/DX2                !
 ! D58   D(26,7,8,9)           -58.5196         estimate D2E/DX2                !
 ! D59   D(26,7,8,28)          179.9997         estimate D2E/DX2                !
 ! D60   D(26,7,8,29)           62.9612         estimate D2E/DX2                !
 ! D61   D(27,7,8,9)            58.5195         estimate D2E/DX2                !
 ! D62   D(27,7,8,28)          -62.9613         estimate D2E/DX2                !
 ! D63   D(27,7,8,29)         -179.9997         estimate D2E/DX2                !
 ! D64   D(7,8,9,10)          -179.9999         estimate D2E/DX2                !
 ! D65   D(7,8,9,30)            58.5218         estimate D2E/DX2                !
 ! D66   D(7,8,9,31)           -58.5217         estimate D2E/DX2                !
 ! D67   D(28,8,9,10)          -58.521          estimate D2E/DX2                !
 ! D68   D(28,8,9,30)         -179.9993         estimate D2E/DX2                !
 ! D69   D(28,8,9,31)           62.9572         estimate D2E/DX2                !
 ! D70   D(29,8,9,10)           58.5212         estimate D2E/DX2                !
 ! D71   D(29,8,9,30)          -62.9571         estimate D2E/DX2                !
 ! D72   D(29,8,9,31)          179.9994         estimate D2E/DX2                !
 ! D73   D(8,9,10,11)          180.0            estimate D2E/DX2                !
 ! D74   D(8,9,10,32)           58.5309         estimate D2E/DX2                !
 ! D75   D(8,9,10,33)          -58.5308         estimate D2E/DX2                !
 ! D76   D(30,9,10,11)         -58.518          estimate D2E/DX2                !
 ! D77   D(30,9,10,32)        -179.9871         estimate D2E/DX2                !
 ! D78   D(30,9,10,33)          62.9512         estimate D2E/DX2                !
 ! D79   D(31,9,10,11)          58.518          estimate D2E/DX2                !
 ! D80   D(31,9,10,32)         -62.9511         estimate D2E/DX2                !
 ! D81   D(31,9,10,33)         179.9872         estimate D2E/DX2                !
 ! D82   D(9,10,11,12)        -180.0            estimate D2E/DX2                !
 ! D83   D(9,10,11,34)          58.4695         estimate D2E/DX2                !
 ! D84   D(9,10,11,35)         -58.4693         estimate D2E/DX2                !
 ! D85   D(32,10,11,12)        -58.5031         estimate D2E/DX2                !
 ! D86   D(32,10,11,34)        179.9663         estimate D2E/DX2                !
 ! D87   D(32,10,11,35)         63.0275         estimate D2E/DX2                !
 ! D88   D(33,10,11,12)         58.5032         estimate D2E/DX2                !
 ! D89   D(33,10,11,34)        -63.0274         estimate D2E/DX2                !
 ! D90   D(33,10,11,35)       -179.9662         estimate D2E/DX2                !
 ! D91   D(10,11,12,36)         59.9752         estimate D2E/DX2                !
 ! D92   D(10,11,12,37)        -59.9752         estimate D2E/DX2                !
 ! D93   D(10,11,12,38)       -180.0            estimate D2E/DX2                !
 ! D94   D(34,11,12,36)       -178.5705         estimate D2E/DX2                !
 ! D95   D(34,11,12,37)         61.4791         estimate D2E/DX2                !
 ! D96   D(34,11,12,38)        -58.5457         estimate D2E/DX2                !
 ! D97   D(35,11,12,36)        -61.4792         estimate D2E/DX2                !
 ! D98   D(35,11,12,37)        178.5704         estimate D2E/DX2                !
 ! D99   D(35,11,12,38)         58.5456         estimate D2E/DX2                !
 --------------------------------------------------------------------------------
 Trust Radius=3.00D-01 FncErr=1.00D-07 GrdErr=1.00D-06
 Number of steps in this run=    218 maximum allowed number of steps=    228.
 GradGradGradGradGradGradGradGradGradGradGradGradGradGradGradGradGradGrad

                          Input orientation:                          
 ---------------------------------------------------------------------
 Center     Atomic      Atomic             Coordinates (Angstroms)
 Number     Number       Type             X           Y           Z
 ---------------------------------------------------------------------
      1          6           0        0.064342   -1.147184   -2.522667
      2          6           0        0.489053   -2.518524   -1.922586
      3          6           0        1.766589   -2.407310   -1.032784
      4          6           0        2.192224   -3.783079   -0.431085
      5          6           0        3.469768   -3.671489    0.458642
      6          6           0        3.895457   -5.047357    1.060399
      7          6           0        5.173033   -4.935698    1.950129
      8          6           0        5.598715   -6.311572    2.551880
      9          6           0        6.876261   -6.200002    3.441605
     10          6           0        7.301877   -7.575786    4.043286
     11          6           0        8.579415   -7.464609    4.933090
     12          6           0        9.004098   -8.835969    5.533146
     13          1           0       -0.837738   -1.258557   -3.143866
     14          1           0        0.867439   -0.732374   -3.150985
     15          1           0       -0.154474   -0.423710   -1.722343
     16          1           0        0.678063   -3.233783   -2.742146
     17          1           0       -0.340307   -2.926191   -1.318461
     18          1           0        1.578151   -1.692625   -0.212566
     19          1           0        2.596635   -2.000251   -1.636410
     20          1           0        2.380331   -4.497506   -1.251614
     21          1           0        1.361828   -4.189876    0.172255
     22          1           0        3.281628   -2.957053    1.279146
     23          1           0        4.300130   -3.264683   -0.144725
     24          1           0        4.083599   -5.761790    0.239891
     25          1           0        3.065094   -5.454158    1.663768
     26          1           0        4.984893   -4.221267    2.770638
     27          1           0        6.003397   -4.528898    1.346761
     28          1           0        5.786849   -7.026004    1.731370
     29          1           0        4.768349   -6.718374    3.155244
     30          1           0        6.688164   -5.485582    4.262143
     31          1           0        7.706662   -5.793210    2.838270
     32          1           0        7.490304   -8.290461    3.223058
     33          1           0        6.471823   -7.982840    4.646905
     34          1           0        8.390417   -6.749361    5.752661
     35          1           0        9.408784   -7.056946    4.328973
     36          1           0        9.222901   -9.559431    4.732807
     37          1           0        8.200990   -9.250775    6.161453
     38          1           0        9.906178   -8.724626    6.154349
 ---------------------------------------------------------------------
                    Distance matrix (angstroms):
                    1          2          3          4          5
     1  C    0.000000
     2  C    1.555973   0.000000
     3  C    2.589462   1.560838   0.000000
     4  C    3.981274   2.593158   1.560752   0.000000
     5  C    5.182397   3.985503   2.592936   1.560828   0.000000
     6  C    6.536601   5.186211   3.985391   2.593053   1.560877
     7  C    7.775440   6.540666   5.185979   3.985465   2.593043
     8  C    9.113243   7.779248   6.540509   5.186090   3.985486
     9  C   10.368498   9.117250   7.779037   6.540600   5.186101
    10  C   11.697033  10.372179   9.116964   7.779021   6.540510
    11  C   12.961660  11.701196  10.372199   9.117249   7.779263
    12  C   14.280503  12.961637  11.697035  10.368479   9.113246
    13  H    1.100927   2.199867   3.543842   4.786759   6.111866
    14  H    1.100825   2.200562   2.846165   4.296477   5.332908
    15  H    1.100825   2.200562   2.846163   4.296475   5.332906
    16  H    2.186028   1.104082   2.188576   2.816986   4.269689
    17  H    2.186028   1.104082   2.188575   2.816986   4.269688
    18  H    2.815260   2.189158   1.104101   2.189711   2.818623
    19  H    2.815259   2.189157   1.104101   2.189711   2.818623
    20  H    4.266619   2.818422   2.189404   1.104110   2.189556
    21  H    4.266620   2.818424   2.189404   1.104110   2.189555
    22  H    5.299088   4.271050   2.818258   2.189523   1.104103
    23  H    5.299086   4.271048   2.818257   2.189522   1.104103
    24  H    6.714219   5.302437   4.270922   2.818298   2.189520
    25  H    6.714222   5.302440   4.270924   2.818300   2.189521
    26  H    7.853718   6.718501   5.302257   4.271069   2.818366
    27  H    7.853715   6.718498   5.302255   4.271067   2.818365
    28  H    9.241452   7.857188   6.718286   5.302273   4.271004
    29  H    9.241456   7.857192   6.718289   5.302276   4.271005
    30  H   10.427385   9.245716   7.857092   6.718510   5.302417
    31  H   10.427380   9.245712   7.857088   6.718506   5.302414
    32  H   11.797656  10.431224   9.245787   7.857411   6.718751
    33  H   11.797660  10.431227   9.245790   7.857413   6.718753
    34  H   13.007266  11.800040  10.429323   9.244195   7.855745
    35  H   13.007262  11.800036  10.429319   9.244192   7.855743
    36  H   14.397466  13.044107  11.831799  10.462430   9.275500
    37  H   14.397471  13.044112  11.831803  10.462434   9.275503
    38  H   15.151567  13.872088  12.562495  11.282372   9.970088
                    6          7          8          9         10
     6  C    0.000000
     7  C    1.560861   0.000000
     8  C    2.593037   1.560877   0.000000
     9  C    3.985465   2.593059   1.560828   0.000000
    10  C    5.185968   3.985392   2.592931   1.560753   0.000000
    11  C    6.540665   5.186220   3.985502   2.593162   1.560838
    12  C    7.775426   6.536603   5.182390   3.981275   2.589459
    13  H    7.377939   8.694798   9.970075  11.282380  12.562478
    14  H    6.747127   7.888436   9.275509  10.462463  11.831813
    15  H    6.747126   7.888435   9.275509  10.462464  11.831814
    16  H    5.300945   6.717046   7.855717   9.244181  10.429284
    17  H    5.300945   6.717047   7.855719   9.244183  10.429288
    18  H    4.271367   5.302636   6.718762   7.857441   9.245804
    19  H    4.271366   5.302635   6.718760   7.857439   9.245801
    20  H    2.818395   4.271107   5.302395   6.718496   7.857060
    21  H    2.818394   4.271108   5.302397   6.718499   7.857063
    22  H    2.189523   2.818274   4.271012   5.302296   6.718301
    23  H    2.189522   2.818273   4.271010   5.302293   6.718297
    24  H    1.104103   2.189568   2.818355   4.271061   5.302236
    25  H    1.104103   2.189568   2.818356   4.271063   5.302239
    26  H    2.189569   1.104103   2.189522   2.818309   4.270931
    27  H    2.189569   1.104103   2.189522   2.818307   4.270928
    28  H    2.818263   2.189521   1.104103   2.189521   2.818248
    29  H    2.818264   2.189521   1.104103   2.189522   2.818251
    30  H    4.271114   2.818404   2.189556   1.104110   2.189405
    31  H    4.271113   2.818403   2.189557   1.104110   2.189405
    32  H    5.302617   4.271362   2.818616   2.189710   1.104101
    33  H    5.302618   4.271362   2.818615   2.189710   1.104101
    34  H    6.717054   5.300961   4.269691   2.816992   2.188576
    35  H    6.717053   5.300960   4.269692   2.816992   2.188577
    36  H    7.888413   6.747121   5.332895   4.296474   2.846159
    37  H    7.888415   6.747122   5.332895   4.296474   2.846159
    38  H    8.694792   7.377948   6.111862   4.786763   3.543841
                   11         12         13         14         15
    11  C    0.000000
    12  C    1.555973   0.000000
    13  H   13.872096  15.151549   0.000000
    14  H   13.044148  14.397485   1.784530   0.000000
    15  H   13.044150  14.397487   1.784530   1.783423   0.000000
    16  H   11.800020  13.007220   2.522013   2.541665   3.103164
    17  H   11.800024  13.007225   2.522011   3.103164   2.541666
    18  H   10.431264  11.797680   3.823278   3.171986   2.625178
    19  H   10.431260  11.797675   3.823278   2.625179   3.171982
    20  H    9.245696  10.427345   4.942405   4.480253   4.821062
    21  H    9.245700  10.427349   4.942406   4.821064   4.480254
    22  H    7.857220   9.241473   6.278304   5.513943   5.218578
    23  H    7.857216   9.241469   6.278302   5.218578   5.513938
    24  H    6.718487   7.853689   7.479871   6.865621   7.092723
    25  H    6.718490   7.853693   7.479874   7.092727   6.865623
    26  H    5.302457   6.714234   8.812606   8.011954   7.811620
    27  H    5.302454   6.714230   8.812603   7.811617   8.011949
    28  H    4.271043   5.299072  10.045721   9.362038   9.529834
    29  H    4.271045   5.299075  10.045725   9.529838   9.362042
    30  H    2.818430   4.266626  11.373473  10.555959  10.404725
    31  H    2.818429   4.266624  11.373468  10.404720  10.555954
    32  H    2.189156   2.815254  12.623061  11.900229  12.032680
    33  H    2.189157   2.815256  12.623065  12.032683  11.900235
    34  H    1.104082   2.186029  13.944747  13.117707  12.996334
    35  H    1.104082   2.186029  13.944742  12.996328  13.117703
    36  H    2.200561   1.100825  15.236894  14.487404  14.596764
    37  H    2.200561   1.100825  15.236899  14.596767  14.487411
    38  H    2.199868   1.100927  16.050879  15.236933  15.236936
                   16         17         18         19         20
    16  H    0.000000
    17  H    1.777236   0.000000
    18  H    3.095820   2.534792   0.000000
    19  H    2.534793   3.095818   1.777435   0.000000
    20  H    2.591601   3.142510   3.096849   2.535970   0.000000
    21  H    3.142512   2.591602   2.535970   3.096849   1.777467
    22  H    4.798533   4.457233   2.593418   3.144066   3.096786
    23  H    4.457232   4.798530   3.144064   2.593417   2.535880
    24  H    5.184692   5.480878   4.800009   4.458783   2.593092
    25  H    5.480881   5.184696   4.458785   4.800011   3.143810
    26  H    7.065033   6.837814   5.186465   5.482587   4.799851
    27  H    6.837811   7.065030   5.482585   5.186462   4.458604
    28  H    7.777723   7.978219   7.066608   6.839415   5.186122
    29  H    7.978221   7.777728   6.839419   7.066610   5.482270
    30  H    9.500103   9.332364   7.779574   7.980041   7.066487
    31  H    9.332358   9.500101   7.980040   7.779567   6.839284
    32  H   10.371127  10.522322   9.502027   9.334301   7.779526
    33  H   10.522323  10.371134   9.334307   9.502027   7.980000
    34  H   12.000060  11.867727  10.371185  10.522373   9.500098
    35  H   11.867720  12.000059  10.522373  10.371178   9.332355
    36  H   12.996269  13.117648  12.032687  11.900233  10.404670
    37  H   13.117648  12.996277  11.900241  12.032687  10.555908
    38  H   13.944715  13.944720  12.623101  12.623097  11.373444
                   21         22         23         24         25
    21  H    0.000000
    22  H    2.535881   0.000000
    23  H    3.096785   1.777469   0.000000
    24  H    3.143807   3.096734   2.535815   0.000000
    25  H    2.593094   2.535815   3.096734   1.777474   0.000000
    26  H    4.458607   2.593048   3.143770   3.096808   2.535904
    27  H    4.799850   3.143771   2.593045   2.535903   3.096808
    28  H    5.482268   4.799688   4.458430   2.593030   3.143758
    29  H    5.186126   4.458432   4.799688   3.143759   2.593033
    30  H    6.839289   5.186156   5.482296   4.799849   4.458606
    31  H    7.066486   5.482297   5.186151   4.458603   4.799850
    32  H    7.980001   7.066611   6.839416   5.186435   5.482562
    33  H    7.779532   6.839422   7.066610   5.482559   5.186438
    34  H    9.332361   7.777768   7.978257   7.065028   6.837811
    35  H    9.500099   7.978259   7.777761   6.837808   7.065029
    36  H   10.555910   9.529843   9.362043   7.811581   8.011920
    37  H   10.404678   9.362050   9.529841   8.011917   7.811587
    38  H   11.373448  10.045754  10.045749   8.812584   8.812588
                   26         27         28         29         30
    26  H    0.000000
    27  H    1.777474   0.000000
    28  H    3.096734   2.535814   0.000000
    29  H    2.535815   3.096734   1.777468   0.000000
    30  H    2.593108   3.143820   3.096785   2.535880   0.000000
    31  H    3.143820   2.593105   2.535880   3.096786   1.777467
    32  H    4.800012   4.458783   2.593404   3.144057   3.096849
    33  H    4.458787   4.800010   3.144053   2.593406   2.535971
    34  H    5.184720   5.480902   4.798529   4.457232   2.591612
    35  H    5.480903   5.184716   4.457231   4.798532   3.142519
    36  H    7.092731   6.865624   5.218557   5.513923   4.821065
    37  H    6.865629   7.092728   5.513920   5.218560   4.480257
    38  H    7.479893   7.479889   6.278291   6.278294   4.942416
                   31         32         33         34         35
    31  H    0.000000
    32  H    2.535969   0.000000
    33  H    3.096849   1.777435   0.000000
    34  H    3.142519   3.095818   2.534792   0.000000
    35  H    2.591611   2.534793   3.095819   1.777236   0.000000
    36  H    4.480254   2.625171   3.171979   3.103164   2.541666
    37  H    4.821064   3.171977   2.625172   2.541665   3.103164
    38  H    4.942414   3.823273   3.823275   2.522015   2.522014
                   36         37         38
    36  H    0.000000
    37  H    1.783423   0.000000
    38  H    1.784531   1.784530   0.000000
 Stoichiometry    C12H26
 Framework group  C1[X(C12H26)]
 Deg. of freedom   108
 Full point group                 C1      NOp   1
 Largest Abelian subgroup         C1      NOp   1
 Largest concise Abelian subgroup C1      NOp   1
                         Standard orientation:                         
 ---------------------------------------------------------------------
 Center     Atomic      Atomic             Coordinates (Angstroms)
 Number     Number       Type             X           Y           Z
 ---------------------------------------------------------------------
      1          6           0       -7.133379    0.313270   -0.000007
      2          6           0       -5.826438   -0.531096   -0.000004
      3          6           0       -4.544322    0.359070   -0.000001
      4          6           0       -3.233633   -0.488304    0.000002
      5          6           0       -1.951745    0.402171    0.000005
      6          6           0       -0.640938   -0.445250    0.000006
      7          6           0        0.640940    0.445299    0.000006
      8          6           0        1.951741   -0.402130    0.000006
      9          6           0        3.233641    0.488327    0.000003
     10          6           0        4.544314   -0.359071   -0.000001
     11          6           0        5.826451    0.531064   -0.000004
     12          6           0        7.133370   -0.313338   -0.000008
     13          1           0       -8.018152   -0.341876   -0.000007
     14          1           0       -7.180208    0.957064   -0.891720
     15          1           0       -7.180210    0.957068    0.891703
     16          1           0       -5.814070   -1.186232   -0.888622
     17          1           0       -5.814074   -1.186231    0.888614
     18          1           0       -4.555654    1.014121    0.888717
     19          1           0       -4.555651    1.014121   -0.888718
     20          1           0       -3.222824   -1.143358   -0.888731
     21          1           0       -3.222827   -1.143358    0.888735
     22          1           0       -1.962594    1.057210    0.888739
     23          1           0       -1.962592    1.057210   -0.888729
     24          1           0       -0.630090   -1.100287   -0.888730
     25          1           0       -0.630091   -1.100286    0.888744
     26          1           0        0.630095    1.100337    0.888742
     27          1           0        0.630095    1.100335   -0.888732
     28          1           0        1.962582   -1.057171   -0.888728
     29          1           0        1.962583   -1.057169    0.888741
     30          1           0        3.222846    1.143382    0.888736
     31          1           0        3.222843    1.143381   -0.888731
     32          1           0        4.555628   -1.014122   -0.888718
     33          1           0        4.555632   -1.014123    0.888716
     34          1           0        5.814104    1.186199    0.888615
     35          1           0        5.814100    1.186201   -0.888621
     36          1           0        7.180179   -0.957134   -0.891720
     37          1           0        7.180184   -0.957135    0.891703
     38          1           0        8.018161    0.341784   -0.000010
 ---------------------------------------------------------------------
 Rotational constants (GHZ):      6.8196431      0.1436011      0.1421528
 Standard basis: STO-3G (5D, 7F)
 There are    86 symmetry adapted cartesian basis functions of A   symmetry.
 There are    86 symmetry adapted basis functions of A   symmetry.
    86 basis functions,   258 primitive gaussians,    86 cartesian basis functions
    49 alpha electrons       49 beta electrons
       nuclear repulsion energy       661.8134712944 Hartrees.
 NAtoms=   38 NActive=   38 NUniq=   38 SFac= 1.00D+00 NAtFMM=   60 NAOKFM=F Big=F
 Integral buffers will be    131072 words long.
 Raffenetti 2 integral format.
 Two-electron integral symmetry is turned on.
 One-electron integrals computed using PRISM.
 NBasis=    86 RedAO= T EigKep=  2.09D-01  NBF=    86
 NBsUse=    86 1.00D-06 EigRej= -1.00D+00 NBFU=    86
 ExpMin= 1.69D-01 ExpMax= 7.16D+01 ExpMxC= 7.16D+01 IAcc=1 IRadAn=         1 AccDes= 0.00D+00
 Harris functional with IExCor=  402 and IRadAn=       1 diagonalized for initial guess.
 HarFok:  IExCor=  402 AccDes= 0.00D+00 IRadAn=         1 IDoV= 1 UseB2=F ITyADJ=14
 ICtDFT=  3500011 ScaDFX=  1.000000  1.000000  1.000000  1.000000
 FoFCou: FMM=F IPFlag=           0 FMFlag=      100000 FMFlg1=           0
         NFxFlg=           0 DoJE=T BraDBF=F KetDBF=T FulRan=T
         wScrn=  0.000000 ICntrl=     500 IOpCl=  0 I1Cent=   200000004 NGrid=           0
         NMat0=    1 NMatS0=      1 NMatT0=    0 NMatD0=    1 NMtDS0=    0 NMtDT0=    0
 Petite list used in FoFCou.
 Keep R1 ints in memory in canonical form, NReq=7951135.
 Requested convergence on RMS density matrix=1.00D-08 within 128 cycles.
 Requested convergence on MAX density matrix=1.00D-06.
 Requested convergence on             energy=1.00D-06.
 No special actions if energy rises.
 Integral accuracy reduced to 1.0D-05 until final iterations.
 Initial convergence to 1.0D-05 achieved.  Increase integral accuracy.
 SCF Done:  E(RB3LYP) =  -467.367565437     A.U. after   10 cycles
            NFock= 10  Conv=0.34D-08     -V/T= 2.0184

 **********************************************************************

            Population analysis using the SCF density.

 **********************************************************************

 Orbital symmetries:
       Occupied  (A) (A) (A) (A) (A) (A) (A) (A) (A) (A) (A) (A)
                 (A) (A) (A) (A) (A) (A) (A) (A) (A) (A) (A) (A)
                 (A) (A) (A) (A) (A) (A) (A) (A) (A) (A) (A) (A)
                 (A) (A) (A) (A) (A) (A) (A) (A) (A) (A) (A) (A)
                 (A)
       Virtual   (A) (A) (A) (A) (A) (A) (A) (A) (A) (A) (A) (A)
                 (A) (A) (A) (A) (A) (A) (A) (A) (A) (A) (A) (A)
                 (A) (A) (A) (A) (A) (A) (A) (A) (A) (A) (A) (A)
                 (A)
 The electronic state is 1-A.
 Alpha  occ. eigenvalues --  -10.00712 -10.00712 -10.00461 -10.00448 -10.00422
 Alpha  occ. eigenvalues --  -10.00391 -10.00358 -10.00324 -10.00292 -10.00265
 Alpha  occ. eigenvalues --   -9.99961  -9.99961  -0.76443  -0.75382  -0.73599
 Alpha  occ. eigenvalues --   -0.71139  -0.68074  -0.64521  -0.60694  -0.57040
 Alpha  occ. eigenvalues --   -0.54467  -0.54213  -0.53614  -0.53413  -0.44635
 Alpha  occ. eigenvalues --   -0.43641  -0.42021  -0.39891  -0.38772  -0.38655
 Alpha  occ. eigenvalues --   -0.37432  -0.37029  -0.35900  -0.34888  -0.34827
 Alpha  occ. eigenvalues --   -0.32541  -0.32531  -0.31685  -0.30642  -0.30499
 Alpha  occ. eigenvalues --   -0.29333  -0.28999  -0.28609  -0.28320  -0.28269
 Alpha  occ. eigenvalues --   -0.28084  -0.27590  -0.27225  -0.23814
 Alpha virt. eigenvalues --    0.30818   0.34667   0.35632   0.36788   0.38310
 Alpha virt. eigenvalues --    0.38417   0.38580   0.39053   0.39622   0.40412
 Alpha virt. eigenvalues --    0.40786   0.42469   0.43167   0.44313   0.45030
 Alpha virt. eigenvalues --    0.45525   0.47328   0.47347   0.47744   0.47775
 Alpha virt. eigenvalues --    0.48042   0.48641   0.48807   0.49133   0.49814
 Alpha virt. eigenvalues --    0.49866   0.50347   0.50630   0.50902   0.51119
 Alpha virt. eigenvalues --    0.51766   0.51908   0.52479   0.52654   0.53572
 Alpha virt. eigenvalues --    0.55096   0.56139
          Condensed to atoms (all electrons):
               1          2          3          4          5          6
     1  C    4.785620   0.359428  -0.019944   0.000600  -0.000004   0.000000
     2  C    0.359428   4.776191   0.358318  -0.019060   0.000585  -0.000003
     3  C   -0.019944   0.358318   4.788051   0.358163  -0.018993   0.000584
     4  C    0.000600  -0.019060   0.358163   4.788188   0.358067  -0.018993
     5  C   -0.000004   0.000585  -0.018993   0.358067   4.788141   0.358020
     6  C    0.000000  -0.000003   0.000584  -0.018993   0.358020   4.788203
     7  C    0.000000   0.000000  -0.000003   0.000584  -0.018990   0.358031
     8  C    0.000000   0.000000   0.000000  -0.000003   0.000584  -0.018990
     9  C    0.000000   0.000000   0.000000   0.000000  -0.000003   0.000584
    10  C    0.000000   0.000000   0.000000   0.000000   0.000000  -0.000003
    11  C    0.000000   0.000000   0.000000   0.000000   0.000000   0.000000
    12  C    0.000000   0.000000   0.000000   0.000000   0.000000   0.000000
    13  H    0.379545  -0.018568   0.001146  -0.000013   0.000000   0.000000
    14  H    0.379494  -0.019570  -0.001954   0.000006   0.000000   0.000000
    15  H    0.379494  -0.019570  -0.001954   0.000006   0.000000   0.000000
    16  H   -0.021188   0.378131  -0.021337  -0.001942   0.000004   0.000000
    17  H   -0.021188   0.378131  -0.021337  -0.001942   0.000004   0.000000
    18  H   -0.001921  -0.021237   0.377532  -0.021209  -0.001945   0.000005
    19  H   -0.001921  -0.021237   0.377532  -0.021209  -0.001945   0.000005
    20  H    0.000005  -0.001947  -0.021230   0.377509  -0.021217  -0.001945
    21  H    0.000005  -0.001947  -0.021230   0.377509  -0.021217  -0.001945
    22  H    0.000000   0.000005  -0.001946  -0.021227   0.377523  -0.021225
    23  H    0.000000   0.000005  -0.001946  -0.021227   0.377523  -0.021225
    24  H    0.000000   0.000000   0.000005  -0.001945  -0.021227   0.377521
    25  H    0.000000   0.000000   0.000005  -0.001945  -0.021227   0.377521
    26  H    0.000000   0.000000   0.000000   0.000005  -0.001945  -0.021224
    27  H    0.000000   0.000000   0.000000   0.000005  -0.001945  -0.021224
    28  H    0.000000   0.000000   0.000000   0.000000   0.000005  -0.001945
    29  H    0.000000   0.000000   0.000000   0.000000   0.000005  -0.001945
    30  H    0.000000   0.000000   0.000000   0.000000   0.000000   0.000005
    31  H    0.000000   0.000000   0.000000   0.000000   0.000000   0.000005
    32  H    0.000000   0.000000   0.000000   0.000000   0.000000   0.000000
    33  H    0.000000   0.000000   0.000000   0.000000   0.000000   0.000000
    34  H    0.000000   0.000000   0.000000   0.000000   0.000000   0.000000
    35  H    0.000000   0.000000   0.000000   0.000000   0.000000   0.000000
    36  H    0.000000   0.000000   0.000000   0.000000   0.000000   0.000000
    37  H    0.000000   0.000000   0.000000   0.000000   0.000000   0.000000
    38  H    0.000000   0.000000   0.000000   0.000000   0.000000   0.000000
               7          8          9         10         11         12
     1  C    0.000000   0.000000   0.000000   0.000000   0.000000   0.000000
     2  C    0.000000   0.000000   0.000000   0.000000   0.000000   0.000000
     3  C   -0.000003   0.000000   0.000000   0.000000   0.000000   0.000000
     4  C    0.000584  -0.000003   0.000000   0.000000   0.000000   0.000000
     5  C   -0.018990   0.000584  -0.000003   0.000000   0.000000   0.000000
     6  C    0.358031  -0.018990   0.000584  -0.000003   0.000000   0.000000
     7  C    4.788203   0.358020  -0.018993   0.000584  -0.000003   0.000000
     8  C    0.358020   4.788141   0.358067  -0.018994   0.000585  -0.000004
     9  C   -0.018993   0.358067   4.788188   0.358163  -0.019060   0.000600
    10  C    0.000584  -0.018994   0.358163   4.788051   0.358318  -0.019944
    11  C   -0.000003   0.000585  -0.019060   0.358318   4.776191   0.359427
    12  C    0.000000  -0.000004   0.000600  -0.019944   0.359427   4.785621
    13  H    0.000000   0.000000   0.000000   0.000000   0.000000   0.000000
    14  H    0.000000   0.000000   0.000000   0.000000   0.000000   0.000000
    15  H    0.000000   0.000000   0.000000   0.000000   0.000000   0.000000
    16  H    0.000000   0.000000   0.000000   0.000000   0.000000   0.000000
    17  H    0.000000   0.000000   0.000000   0.000000   0.000000   0.000000
    18  H    0.000000   0.000000   0.000000   0.000000   0.000000   0.000000
    19  H    0.000000   0.000000   0.000000   0.000000   0.000000   0.000000
    20  H    0.000005   0.000000   0.000000   0.000000   0.000000   0.000000
    21  H    0.000005   0.000000   0.000000   0.000000   0.000000   0.000000
    22  H   -0.001945   0.000005   0.000000   0.000000   0.000000   0.000000
    23  H   -0.001945   0.000005   0.000000   0.000000   0.000000   0.000000
    24  H   -0.021224  -0.001945   0.000005   0.000000   0.000000   0.000000
    25  H   -0.021224  -0.001945   0.000005   0.000000   0.000000   0.000000
    26  H    0.377521  -0.021227  -0.001945   0.000005   0.000000   0.000000
    27  H    0.377521  -0.021227  -0.001945   0.000005   0.000000   0.000000
    28  H   -0.021225   0.377523  -0.021227  -0.001946   0.000005   0.000000
    29  H   -0.021225   0.377523  -0.021227  -0.001946   0.000005   0.000000
    30  H   -0.001945  -0.021217   0.377509  -0.021229  -0.001947   0.000005
    31  H   -0.001945  -0.021217   0.377509  -0.021230  -0.001947   0.000005
    32  H    0.000005  -0.001945  -0.021209   0.377532  -0.021237  -0.001921
    33  H    0.000005  -0.001945  -0.021209   0.377532  -0.021237  -0.001921
    34  H    0.000000   0.000004  -0.001942  -0.021337   0.378131  -0.021188
    35  H    0.000000   0.000004  -0.001942  -0.021337   0.378131  -0.021188
    36  H    0.000000   0.000000   0.000006  -0.001954  -0.019570   0.379494
    37  H    0.000000   0.000000   0.000006  -0.001954  -0.019570   0.379494
    38  H    0.000000   0.000000  -0.000013   0.001146  -0.018568   0.379545
              13         14         15         16         17         18
     1  C    0.379545   0.379494   0.379494  -0.021188  -0.021188  -0.001921
     2  C   -0.018568  -0.019570  -0.019570   0.378131   0.378131  -0.021237
     3  C    0.001146  -0.001954  -0.001954  -0.021337  -0.021337   0.377532
     4  C   -0.000013   0.000006   0.000006  -0.001942  -0.001942  -0.021209
     5  C    0.000000   0.000000   0.000000   0.000004   0.000004  -0.001945
     6  C    0.000000   0.000000   0.000000   0.000000   0.000000   0.000005
     7  C    0.000000   0.000000   0.000000   0.000000   0.000000   0.000000
     8  C    0.000000   0.000000   0.000000   0.000000   0.000000   0.000000
     9  C    0.000000   0.000000   0.000000   0.000000   0.000000   0.000000
    10  C    0.000000   0.000000   0.000000   0.000000   0.000000   0.000000
    11  C    0.000000   0.000000   0.000000   0.000000   0.000000   0.000000
    12  C    0.000000   0.000000   0.000000   0.000000   0.000000   0.000000
    13  H    0.612460  -0.020908  -0.020908  -0.002052  -0.002052   0.000006
    14  H   -0.020908   0.613507  -0.021156  -0.002171   0.001807  -0.000012
    15  H   -0.020908  -0.021156   0.613507   0.001807  -0.002171   0.000534
    16  H   -0.002052  -0.002171   0.001807   0.625069  -0.022909   0.001817
    17  H   -0.002052   0.001807  -0.002171  -0.022909   0.625069  -0.002204
    18  H    0.000006  -0.000012   0.000534   0.001817  -0.002204   0.626460
    19  H    0.000006   0.000534  -0.000012  -0.002204   0.001817  -0.022995
    20  H    0.000000   0.000002   0.000000   0.000541  -0.000002   0.001812
    21  H    0.000000   0.000000   0.000002  -0.000002   0.000541  -0.002193
    22  H    0.000000   0.000000   0.000000   0.000000   0.000002   0.000533
    23  H    0.000000   0.000000   0.000000   0.000002   0.000000  -0.000001
    24  H    0.000000   0.000000   0.000000   0.000000   0.000000   0.000000
    25  H    0.000000   0.000000   0.000000   0.000000   0.000000   0.000002
    26  H    0.000000   0.000000   0.000000   0.000000   0.000000   0.000000
    27  H    0.000000   0.000000   0.000000   0.000000   0.000000   0.000000
    28  H    0.000000   0.000000   0.000000   0.000000   0.000000   0.000000
    29  H    0.000000   0.000000   0.000000   0.000000   0.000000   0.000000
    30  H    0.000000   0.000000   0.000000   0.000000   0.000000   0.000000
    31  H    0.000000   0.000000   0.000000   0.000000   0.000000   0.000000
    32  H    0.000000   0.000000   0.000000   0.000000   0.000000   0.000000
    33  H    0.000000   0.000000   0.000000   0.000000   0.000000   0.000000
    34  H    0.000000   0.000000   0.000000   0.000000   0.000000   0.000000
    35  H    0.000000   0.000000   0.000000   0.000000   0.000000   0.000000
    36  H    0.000000   0.000000   0.000000   0.000000   0.000000   0.000000
    37  H    0.000000   0.000000   0.000000   0.000000   0.000000   0.000000
    38  H    0.000000   0.000000   0.000000   0.000000   0.000000   0.000000
              19         20         21         22         23         24
     1  C   -0.001921   0.000005   0.000005   0.000000   0.000000   0.000000
     2  C   -0.021237  -0.001947  -0.001947   0.000005   0.000005   0.000000
     3  C    0.377532  -0.021230  -0.021230  -0.001946  -0.001946   0.000005
     4  C   -0.021209   0.377509   0.377509  -0.021227  -0.021227  -0.001945
     5  C   -0.001945  -0.021217  -0.021217   0.377523   0.377523  -0.021227
     6  C    0.000005  -0.001945  -0.001945  -0.021225  -0.021225   0.377521
     7  C    0.000000   0.000005   0.000005  -0.001945  -0.001945  -0.021224
     8  C    0.000000   0.000000   0.000000   0.000005   0.000005  -0.001945
     9  C    0.000000   0.000000   0.000000   0.000000   0.000000   0.000005
    10  C    0.000000   0.000000   0.000000   0.000000   0.000000   0.000000
    11  C    0.000000   0.000000   0.000000   0.000000   0.000000   0.000000
    12  C    0.000000   0.000000   0.000000   0.000000   0.000000   0.000000
    13  H    0.000006   0.000000   0.000000   0.000000   0.000000   0.000000
    14  H    0.000534   0.000002   0.000000   0.000000   0.000000   0.000000
    15  H   -0.000012   0.000000   0.000002   0.000000   0.000000   0.000000
    16  H   -0.002204   0.000541  -0.000002   0.000000   0.000002   0.000000
    17  H    0.001817  -0.000002   0.000541   0.000002   0.000000   0.000000
    18  H   -0.022995   0.001812  -0.002193   0.000533  -0.000001   0.000000
    19  H    0.626460  -0.002193   0.001812  -0.000001   0.000533   0.000002
    20  H   -0.002193   0.626607  -0.023013   0.001812  -0.002195   0.000534
    21  H    0.001812  -0.023013   0.626607  -0.002195   0.001812  -0.000001
    22  H   -0.000001   0.001812  -0.002195   0.626568  -0.023008   0.001812
    23  H    0.000533  -0.002195   0.001812  -0.023008   0.626568  -0.002195
    24  H    0.000002   0.000534  -0.000001   0.001812  -0.002195   0.626586
    25  H    0.000000  -0.000001   0.000534  -0.002195   0.001812  -0.023010
    26  H    0.000000   0.000000   0.000002   0.000534  -0.000001   0.001812
    27  H    0.000000   0.000002   0.000000  -0.000001   0.000534  -0.002194
    28  H    0.000000   0.000000   0.000000   0.000000   0.000002   0.000534
    29  H    0.000000   0.000000   0.000000   0.000002   0.000000  -0.000001
    30  H    0.000000   0.000000   0.000000   0.000000   0.000000   0.000000
    31  H    0.000000   0.000000   0.000000   0.000000   0.000000   0.000002
    32  H    0.000000   0.000000   0.000000   0.000000   0.000000   0.000000
    33  H    0.000000   0.000000   0.000000   0.000000   0.000000   0.000000
    34  H    0.000000   0.000000   0.000000   0.000000   0.000000   0.000000
    35  H    0.000000   0.000000   0.000000   0.000000   0.000000   0.000000
    36  H    0.000000   0.000000   0.000000   0.000000   0.000000   0.000000
    37  H    0.000000   0.000000   0.000000   0.000000   0.000000   0.000000
    38  H    0.000000   0.000000   0.000000   0.000000   0.000000   0.000000
              25         26         27         28         29         30
     1  C    0.000000   0.000000   0.000000   0.000000   0.000000   0.000000
     2  C    0.000000   0.000000   0.000000   0.000000   0.000000   0.000000
     3  C    0.000005   0.000000   0.000000   0.000000   0.000000   0.000000
     4  C   -0.001945   0.000005   0.000005   0.000000   0.000000   0.000000
     5  C   -0.021227  -0.001945  -0.001945   0.000005   0.000005   0.000000
     6  C    0.377521  -0.021224  -0.021224  -0.001945  -0.001945   0.000005
     7  C   -0.021224   0.377521   0.377521  -0.021225  -0.021225  -0.001945
     8  C   -0.001945  -0.021227  -0.021227   0.377523   0.377523  -0.021217
     9  C    0.000005  -0.001945  -0.001945  -0.021227  -0.021227   0.377509
    10  C    0.000000   0.000005   0.000005  -0.001946  -0.001946  -0.021229
    11  C    0.000000   0.000000   0.000000   0.000005   0.000005  -0.001947
    12  C    0.000000   0.000000   0.000000   0.000000   0.000000   0.000005
    13  H    0.000000   0.000000   0.000000   0.000000   0.000000   0.000000
    14  H    0.000000   0.000000   0.000000   0.000000   0.000000   0.000000
    15  H    0.000000   0.000000   0.000000   0.000000   0.000000   0.000000
    16  H    0.000000   0.000000   0.000000   0.000000   0.000000   0.000000
    17  H    0.000000   0.000000   0.000000   0.000000   0.000000   0.000000
    18  H    0.000002   0.000000   0.000000   0.000000   0.000000   0.000000
    19  H    0.000000   0.000000   0.000000   0.000000   0.000000   0.000000
    20  H   -0.000001   0.000000   0.000002   0.000000   0.000000   0.000000
    21  H    0.000534   0.000002   0.000000   0.000000   0.000000   0.000000
    22  H   -0.002195   0.000534  -0.000001   0.000000   0.000002   0.000000
    23  H    0.001812  -0.000001   0.000534   0.000002   0.000000   0.000000
    24  H   -0.023010   0.001812  -0.002194   0.000534  -0.000001   0.000000
    25  H    0.626586  -0.002194   0.001812  -0.000001   0.000534   0.000002
    26  H   -0.002194   0.626586  -0.023010   0.001812  -0.002195   0.000534
    27  H    0.001812  -0.023010   0.626586  -0.002195   0.001812  -0.000001
    28  H   -0.000001   0.001812  -0.002195   0.626569  -0.023008   0.001812
    29  H    0.000534  -0.002195   0.001812  -0.023008   0.626569  -0.002195
    30  H    0.000002   0.000534  -0.000001   0.001812  -0.002195   0.626607
    31  H    0.000000  -0.000001   0.000534  -0.002195   0.001812  -0.023013
    32  H    0.000000   0.000000   0.000002   0.000533  -0.000001   0.001812
    33  H    0.000000   0.000002   0.000000  -0.000001   0.000533  -0.002193
    34  H    0.000000   0.000000   0.000000   0.000000   0.000002   0.000541
    35  H    0.000000   0.000000   0.000000   0.000002   0.000000  -0.000002
    36  H    0.000000   0.000000   0.000000   0.000000   0.000000   0.000000
    37  H    0.000000   0.000000   0.000000   0.000000   0.000000   0.000002
    38  H    0.000000   0.000000   0.000000   0.000000   0.000000   0.000000
              31         32         33         34         35         36
     1  C    0.000000   0.000000   0.000000   0.000000   0.000000   0.000000
     2  C    0.000000   0.000000   0.000000   0.000000   0.000000   0.000000
     3  C    0.000000   0.000000   0.000000   0.000000   0.000000   0.000000
     4  C    0.000000   0.000000   0.000000   0.000000   0.000000   0.000000
     5  C    0.000000   0.000000   0.000000   0.000000   0.000000   0.000000
     6  C    0.000005   0.000000   0.000000   0.000000   0.000000   0.000000
     7  C   -0.001945   0.000005   0.000005   0.000000   0.000000   0.000000
     8  C   -0.021217  -0.001945  -0.001945   0.000004   0.000004   0.000000
     9  C    0.377509  -0.021209  -0.021209  -0.001942  -0.001942   0.000006
    10  C   -0.021230   0.377532   0.377532  -0.021337  -0.021337  -0.001954
    11  C   -0.001947  -0.021237  -0.021237   0.378131   0.378131  -0.019570
    12  C    0.000005  -0.001921  -0.001921  -0.021188  -0.021188   0.379494
    13  H    0.000000   0.000000   0.000000   0.000000   0.000000   0.000000
    14  H    0.000000   0.000000   0.000000   0.000000   0.000000   0.000000
    15  H    0.000000   0.000000   0.000000   0.000000   0.000000   0.000000
    16  H    0.000000   0.000000   0.000000   0.000000   0.000000   0.000000
    17  H    0.000000   0.000000   0.000000   0.000000   0.000000   0.000000
    18  H    0.000000   0.000000   0.000000   0.000000   0.000000   0.000000
    19  H    0.000000   0.000000   0.000000   0.000000   0.000000   0.000000
    20  H    0.000000   0.000000   0.000000   0.000000   0.000000   0.000000
    21  H    0.000000   0.000000   0.000000   0.000000   0.000000   0.000000
    22  H    0.000000   0.000000   0.000000   0.000000   0.000000   0.000000
    23  H    0.000000   0.000000   0.000000   0.000000   0.000000   0.000000
    24  H    0.000002   0.000000   0.000000   0.000000   0.000000   0.000000
    25  H    0.000000   0.000000   0.000000   0.000000   0.000000   0.000000
    26  H   -0.000001   0.000000   0.000002   0.000000   0.000000   0.000000
    27  H    0.000534   0.000002   0.000000   0.000000   0.000000   0.000000
    28  H   -0.002195   0.000533  -0.000001   0.000000   0.000002   0.000000
    29  H    0.001812  -0.000001   0.000533   0.000002   0.000000   0.000000
    30  H   -0.023013   0.001812  -0.002193   0.000541  -0.000002   0.000000
    31  H    0.626607  -0.002193   0.001812  -0.000002   0.000541   0.000002
    32  H   -0.002193   0.626460  -0.022995   0.001817  -0.002204   0.000534
    33  H    0.001812  -0.022995   0.626460  -0.002204   0.001817  -0.000012
    34  H   -0.000002   0.001817  -0.002204   0.625069  -0.022909   0.001807
    35  H    0.000541  -0.002204   0.001817  -0.022909   0.625069  -0.002171
    36  H    0.000002   0.000534  -0.000012   0.001807  -0.002171   0.613507
    37  H    0.000000  -0.000012   0.000534  -0.002171   0.001807  -0.021156
    38  H    0.000000   0.000006   0.000006  -0.002052  -0.002052  -0.020908
              37         38
     1  C    0.000000   0.000000
     2  C    0.000000   0.000000
     3  C    0.000000   0.000000
     4  C    0.000000   0.000000
     5  C    0.000000   0.000000
     6  C    0.000000   0.000000
     7  C    0.000000   0.000000
     8  C    0.000000   0.000000
     9  C    0.000006  -0.000013
    10  C   -0.001954   0.001146
    11  C   -0.019570  -0.018568
    12  C    0.379494   0.379545
    13  H    0.000000   0.000000
    14  H    0.000000   0.000000
    15  H    0.000000   0.000000
    16  H    0.000000   0.000000
    17  H    0.000000   0.000000
    18  H    0.000000   0.000000
    19  H    0.000000   0.000000
    20  H    0.000000   0.000000
    21  H    0.000000   0.000000
    22  H    0.000000   0.000000
    23  H    0.000000   0.000000
    24  H    0.000000   0.000000
    25  H    0.000000   0.000000
    26  H    0.000000   0.000000
    27  H    0.000000   0.000000
    28  H    0.000000   0.000000
    29  H    0.000000   0.000000
    30  H    0.000002   0.000000
    31  H    0.000000   0.000000
    32  H   -0.000012   0.000006
    33  H    0.000534   0.000006
    34  H   -0.002171  -0.002052
    35  H    0.001807  -0.002052
    36  H   -0.021156  -0.020908
    37  H    0.613507  -0.020908
    38  H   -0.020908   0.612460
 Mulliken charges:
               1
     1  C   -0.218026
     2  C   -0.127654
     3  C   -0.129461
     4  C   -0.129925
     5  C   -0.129802
     6  C   -0.129813
     7  C   -0.129813
     8  C   -0.129802
     9  C   -0.129926
    10  C   -0.129461
    11  C   -0.127654
    12  C   -0.218025
    13  H    0.071339
    14  H    0.070422
    15  H    0.070422
    16  H    0.066434
    17  H    0.066434
    18  H    0.065017
    19  H    0.065017
    20  H    0.064916
    21  H    0.064916
    22  H    0.064950
    23  H    0.064950
    24  H    0.064933
    25  H    0.064933
    26  H    0.064933
    27  H    0.064933
    28  H    0.064950
    29  H    0.064950
    30  H    0.064916
    31  H    0.064916
    32  H    0.065017
    33  H    0.065017
    34  H    0.066434
    35  H    0.066434
    36  H    0.070422
    37  H    0.070422
    38  H    0.071339
 Sum of Mulliken charges =   0.00000
 Mulliken charges with hydrogens summed into heavy atoms:
               1
     1  C   -0.005843
     2  C    0.005215
     3  C    0.000572
     4  C   -0.000093
     5  C    0.000097
     6  C    0.000053
     7  C    0.000053
     8  C    0.000097
     9  C   -0.000093
    10  C    0.000572
    11  C    0.005215
    12  C   -0.005843
 Electronic spatial extent (au):  <R**2>=           7718.4576
 Charge=              0.0000 electrons
 Dipole moment (field-independent basis, Debye):
    X=              0.0000    Y=              0.0000    Z=              0.0000  Tot=              0.0000
 Quadrupole moment (field-independent basis, Debye-Ang):
   XX=            -77.2501   YY=            -75.9220   ZZ=            -74.7209
   XY=              0.2685   XZ=              0.0000   YZ=              0.0000
 Traceless Quadrupole moment (field-independent basis, Debye-Ang):
   XX=             -1.2858   YY=              0.0423   ZZ=              1.2435
   XY=              0.2685   XZ=              0.0000   YZ=              0.0000
 Octapole moment (field-independent basis, Debye-Ang**2):
  XXX=              0.0001  YYY=              0.0000  ZZZ=              0.0000  XYY=             -0.0001
  XXY=              0.0000  XXZ=              0.0000  XZZ=              0.0000  YZZ=              0.0000
  YYZ=              0.0000  XYZ=              0.0000
 Hexadecapole moment (field-independent basis, Debye-Ang**3):
 XXXX=          -9736.8062 YYYY=           -256.7910 ZZZZ=           -143.4076 XXXY=             42.8837
 XXXZ=              0.0000 YYYX=              0.4070 YYYZ=              0.0000 ZZZX=              0.0000
 ZZZY=              0.0000 XXYY=          -1642.9635 XXZZ=          -1608.1383 YYZZ=            -57.6101
 XXYZ=              0.0000 YYXZ=              0.0000 ZZXY=             -4.7418
 N-N= 6.618134712944D+02 E-N=-2.401782098151D+03  KE= 4.589283971714D+02
 Calling FoFJK, ICntrl=      2127 FMM=F ISym2X=0 I1Cent= 0 IOpClX= 0 NMat=1 NMatS=1 NMatT=0.
 ***** Axes restored to original set *****
 -------------------------------------------------------------------
 Center     Atomic                   Forces (Hartrees/Bohr)
 Number     Number              X              Y              Z
 -------------------------------------------------------------------
      1        6          -0.000001808   -0.000000118   -0.000001251
      2        6          -0.000001288   -0.000000733   -0.000000592
      3        6           0.000000991   -0.000001407    0.000000931
      4        6           0.000000047    0.000002008   -0.000000310
      5        6          -0.000000012    0.000000167   -0.000000111
      6        6           0.000000400    0.000000747    0.000000155
      7        6          -0.000000373   -0.000000694   -0.000000117
      8        6           0.000000095   -0.000000107    0.000000050
      9        6          -0.000000078   -0.000001990    0.000000425
     10        6          -0.000000883    0.000001473   -0.000001023
     11        6           0.000001076    0.000000725    0.000000800
     12        6           0.000001834    0.000000267    0.000001252
     13        1           0.000002326    0.000000659    0.000001506
     14        1           0.000000317    0.000000415   -0.000000496
     15        1          -0.000000274    0.000000586    0.000000308
     16        1           0.000000201    0.000000104    0.000000431
     17        1           0.000000294   -0.000000032   -0.000000003
     18        1           0.000000017   -0.000000775    0.000000387
     19        1           0.000000420   -0.000000833    0.000000194
     20        1           0.000000309    0.000000863   -0.000000446
     21        1          -0.000000240    0.000001061    0.000000077
     22        1          -0.000000368   -0.000000443    0.000000141
     23        1           0.000000091   -0.000000481   -0.000000228
     24        1           0.000000629    0.000000287   -0.000000194
     25        1           0.000000123    0.000000506    0.000000514
     26        1          -0.000000676   -0.000000406    0.000000190
     27        1          -0.000000077   -0.000000478   -0.000000607
     28        1           0.000000230    0.000000348   -0.000000239
     29        1           0.000000083    0.000000463    0.000000220
     30        1          -0.000000260   -0.000000950    0.000000553
     31        1           0.000000142   -0.000001016   -0.000000216
     32        1          -0.000000191    0.000000720   -0.000000536
     33        1          -0.000000195    0.000000788   -0.000000140
     34        1          -0.000000111   -0.000000031   -0.000000265
     35        1          -0.000000478   -0.000000032   -0.000000079
     36        1           0.000000287   -0.000000610   -0.000000281
     37        1          -0.000000293   -0.000000457    0.000000521
     38        1          -0.000002304   -0.000000594   -0.000001525
 -------------------------------------------------------------------
 Cartesian Forces:  Max     0.000002326 RMS     0.000000740

 GradGradGradGradGradGradGradGradGradGradGradGradGradGradGradGradGradGrad
 Berny optimization.
 FormGI is forming the generalized inverse of G from B-inverse, IUseBI=4.
 GSVD:  received Info=                   1 from GESDD.
 Internal  Forces:  Max     0.000003679 RMS     0.000000558
 Search for a local minimum.
 Step number   1 out of a maximum of  218
 All quantities printed in internal units (Hartrees-Bohrs-Radians)
 Mixed Optimization -- En-DIIS/RFO-DIIS
 Second derivative matrix not updated -- first step.
 ITU=  0
     Eigenvalues ---    0.00230   0.00230   0.00230   0.00230   0.00230
     Eigenvalues ---    0.00230   0.00230   0.00230   0.00230   0.00230
     Eigenvalues ---    0.00230   0.03474   0.03474   0.03476   0.03476
     Eigenvalues ---    0.03478   0.03478   0.03478   0.03478   0.03478
     Eigenvalues ---    0.03478   0.04760   0.04760   0.04761   0.04761
     Eigenvalues ---    0.04761   0.04761   0.04761   0.04761   0.04761
     Eigenvalues ---    0.04761   0.05494   0.05494   0.05497   0.05497
     Eigenvalues ---    0.08193   0.08193   0.08193   0.08193   0.08193
     Eigenvalues ---    0.08193   0.08195   0.08195   0.08199   0.08199
     Eigenvalues ---    0.12116   0.12116   0.12116   0.12116   0.12116
     Eigenvalues ---    0.12116   0.12118   0.12118   0.12120   0.12120
     Eigenvalues ---    0.16000   0.16000   0.16000   0.16000   0.16000
     Eigenvalues ---    0.16000   0.21925   0.21925   0.21925   0.21925
     Eigenvalues ---    0.21925   0.21925   0.21925   0.21925   0.21925
     Eigenvalues ---    0.21925   0.26747   0.26747   0.26748   0.26750
     Eigenvalues ---    0.26750   0.26751   0.26751   0.26757   0.26757
     Eigenvalues ---    0.27150   0.27150   0.33232   0.33232   0.33232
     Eigenvalues ---    0.33232   0.33232   0.33232   0.33232   0.33232
     Eigenvalues ---    0.33232   0.33232   0.33232   0.33232   0.33233
     Eigenvalues ---    0.33233   0.33233   0.33233   0.33235   0.33235
     Eigenvalues ---    0.33235   0.33235   0.33580   0.33580   0.33591
     Eigenvalues ---    0.33591   0.33591   0.33591
 RFO step:  Lambda= 0.00000000D+00 EMin= 2.30000000D-03
 Linear search not attempted -- first point.
 Iteration  1 RMS(Cart)=  0.00001760 RMS(Int)=  0.00000000
 Iteration  2 RMS(Cart)=  0.00000000 RMS(Int)=  0.00000000
 Variable       Old X    -DE/DX   Delta X   Delta X   Delta X     New X
                                 (Linear)    (Quad)   (Total)
    R1        2.94036   0.00000   0.00000   0.00000   0.00000   2.94036
    R2        2.08045   0.00000   0.00000  -0.00001  -0.00001   2.08044
    R3        2.08026   0.00000   0.00000   0.00000   0.00000   2.08026
    R4        2.08026   0.00000   0.00000   0.00000   0.00000   2.08026
    R5        2.94956   0.00000   0.00000   0.00000   0.00000   2.94956
    R6        2.08641   0.00000   0.00000   0.00000   0.00000   2.08641
    R7        2.08641   0.00000   0.00000   0.00000   0.00000   2.08641
    R8        2.94939   0.00000   0.00000  -0.00001  -0.00001   2.94938
    R9        2.08645   0.00000   0.00000   0.00000   0.00000   2.08645
   R10        2.08645   0.00000   0.00000   0.00000   0.00000   2.08645
   R11        2.94954   0.00000   0.00000   0.00000   0.00000   2.94954
   R12        2.08647   0.00000   0.00000   0.00000   0.00000   2.08647
   R13        2.08647   0.00000   0.00000   0.00000   0.00000   2.08647
   R14        2.94963   0.00000   0.00000   0.00000   0.00000   2.94963
   R15        2.08645   0.00000   0.00000   0.00000   0.00000   2.08645
   R16        2.08645   0.00000   0.00000   0.00000   0.00000   2.08645
   R17        2.94960   0.00000   0.00000  -0.00001  -0.00001   2.94959
   R18        2.08645   0.00000   0.00000   0.00000   0.00000   2.08645
   R19        2.08645   0.00000   0.00000   0.00000   0.00000   2.08645
   R20        2.94963   0.00000   0.00000   0.00000   0.00000   2.94963
   R21        2.08645   0.00000   0.00000   0.00000   0.00000   2.08645
   R22        2.08645   0.00000   0.00000   0.00000   0.00000   2.08645
   R23        2.94954   0.00000   0.00000   0.00000   0.00000   2.94954
   R24        2.08645   0.00000   0.00000   0.00000   0.00000   2.08645
   R25        2.08645   0.00000   0.00000   0.00000   0.00000   2.08645
   R26        2.94939   0.00000   0.00000  -0.00001  -0.00001   2.94938
   R27        2.08647   0.00000   0.00000   0.00000   0.00000   2.08647
   R28        2.08647   0.00000   0.00000   0.00000   0.00000   2.08647
   R29        2.94956   0.00000   0.00000   0.00000   0.00000   2.94956
   R30        2.08645   0.00000   0.00000   0.00000   0.00000   2.08645
   R31        2.08645   0.00000   0.00000   0.00000   0.00000   2.08645
   R32        2.94036   0.00000   0.00000   0.00000   0.00000   2.94036
   R33        2.08641   0.00000   0.00000   0.00000   0.00000   2.08641
   R34        2.08641   0.00000   0.00000   0.00000   0.00000   2.08641
   R35        2.08026   0.00000   0.00000   0.00000   0.00000   2.08026
   R36        2.08026   0.00000   0.00000   0.00000   0.00000   2.08026
   R37        2.08045   0.00000   0.00000  -0.00001  -0.00001   2.08044
    A1        1.93062   0.00000   0.00000   0.00000   0.00000   1.93062
    A2        1.93168   0.00000   0.00000   0.00000   0.00000   1.93168
    A3        1.93168   0.00000   0.00000   0.00000   0.00000   1.93168
    A4        1.89003   0.00000   0.00000   0.00000   0.00000   1.89002
    A5        1.89003   0.00000   0.00000   0.00000   0.00000   1.89002
    A6        1.88844   0.00000   0.00000   0.00000   0.00000   1.88844
    A7        1.96110   0.00000   0.00000   0.00000   0.00000   1.96110
    A8        1.90859   0.00000   0.00000   0.00000   0.00000   1.90860
    A9        1.90859   0.00000   0.00000   0.00000   0.00000   1.90860
   A10        1.90626   0.00000   0.00000   0.00000   0.00000   1.90626
   A11        1.90626   0.00000   0.00000   0.00000   0.00000   1.90626
   A12        1.87084   0.00000   0.00000   0.00000   0.00000   1.87084
   A13        1.96079   0.00000   0.00000   0.00000   0.00000   1.96079
   A14        1.90703   0.00000   0.00000   0.00000   0.00000   1.90703
   A15        1.90703   0.00000   0.00000   0.00000   0.00000   1.90703
   A16        1.90787   0.00000   0.00000  -0.00001  -0.00001   1.90787
   A17        1.90787   0.00000   0.00000  -0.00001  -0.00001   1.90787
   A18        1.87109   0.00000   0.00000   0.00001   0.00001   1.87110
   A19        1.96054   0.00000   0.00000   0.00000   0.00000   1.96054
   A20        1.90745   0.00000   0.00000  -0.00001  -0.00001   1.90745
   A21        1.90745   0.00000   0.00000  -0.00001  -0.00001   1.90745
   A22        1.90757   0.00000   0.00000   0.00000   0.00000   1.90757
   A23        1.90757   0.00000   0.00000   0.00000   0.00000   1.90757
   A24        1.87112   0.00000   0.00000   0.00001   0.00001   1.87113
   A25        1.96056   0.00000   0.00000   0.00000   0.00000   1.96056
   A26        1.90753   0.00000   0.00000   0.00000   0.00000   1.90753
   A27        1.90753   0.00000   0.00000   0.00000   0.00000   1.90753
   A28        1.90747   0.00000   0.00000   0.00000   0.00000   1.90747
   A29        1.90747   0.00000   0.00000   0.00000   0.00000   1.90747
   A30        1.87114   0.00000   0.00000   0.00001   0.00001   1.87115
   A31        1.96051   0.00000   0.00000   0.00000   0.00000   1.96051
   A32        1.90747   0.00000   0.00000   0.00000   0.00000   1.90747
   A33        1.90747   0.00000   0.00000   0.00000   0.00000   1.90747
   A34        1.90755   0.00000   0.00000   0.00000   0.00000   1.90755
   A35        1.90755   0.00000   0.00000   0.00000   0.00000   1.90755
   A36        1.87115   0.00000   0.00000   0.00001   0.00001   1.87116
   A37        1.96051   0.00000   0.00000   0.00000   0.00000   1.96051
   A38        1.90755   0.00000   0.00000   0.00000   0.00000   1.90755
   A39        1.90755   0.00000   0.00000   0.00000   0.00000   1.90755
   A40        1.90747   0.00000   0.00000   0.00000   0.00000   1.90747
   A41        1.90747   0.00000   0.00000   0.00000   0.00000   1.90747
   A42        1.87115   0.00000   0.00000   0.00001   0.00001   1.87116
   A43        1.96056   0.00000   0.00000   0.00000   0.00000   1.96056
   A44        1.90747   0.00000   0.00000   0.00000   0.00000   1.90747
   A45        1.90747   0.00000   0.00000   0.00000   0.00000   1.90747
   A46        1.90753   0.00000   0.00000   0.00000   0.00000   1.90753
   A47        1.90753   0.00000   0.00000   0.00000   0.00000   1.90753
   A48        1.87114   0.00000   0.00000   0.00001   0.00001   1.87115
   A49        1.96054   0.00000   0.00000   0.00000   0.00000   1.96054
   A50        1.90757   0.00000   0.00000   0.00000   0.00000   1.90757
   A51        1.90757   0.00000   0.00000   0.00000   0.00000   1.90757
   A52        1.90745   0.00000   0.00000  -0.00001  -0.00001   1.90745
   A53        1.90745   0.00000   0.00000  -0.00001  -0.00001   1.90745
   A54        1.87112   0.00000   0.00000   0.00001   0.00001   1.87113
   A55        1.96079   0.00000   0.00000   0.00000   0.00000   1.96079
   A56        1.90787   0.00000   0.00000  -0.00001  -0.00001   1.90787
   A57        1.90787   0.00000   0.00000  -0.00001  -0.00001   1.90787
   A58        1.90703   0.00000   0.00000   0.00000   0.00000   1.90703
   A59        1.90703   0.00000   0.00000   0.00000   0.00000   1.90703
[...]
    17  H    0.000000   0.000000   0.000000   0.000000   0.000000   0.000000
    18  H    0.000000   0.000000   0.000000   0.000000   0.000000   0.000000
    19  H    0.000000   0.000000   0.000000   0.000000   0.000000   0.000000
    20  H    0.000005   0.000000   0.000000   0.000000   0.000000   0.000000
    21  H    0.000005   0.000000   0.000000   0.000000   0.000000   0.000000
    22  H   -0.001945   0.000005   0.000000   0.000000   0.000000   0.000000
    23  H   -0.001945   0.000005   0.000000   0.000000   0.000000   0.000000
    24  H   -0.021224  -0.001945   0.000005   0.000000   0.000000   0.000000
    25  H   -0.021224  -0.001945   0.000005   0.000000   0.000000   0.000000
    26  H    0.377521  -0.021227  -0.001945   0.000005   0.000000   0.000000
    27  H    0.377521  -0.021227  -0.001945   0.000005   0.000000   0.000000
    28  H   -0.021225   0.377523  -0.021227  -0.001946   0.000005   0.000000
    29  H   -0.021225   0.377523  -0.021227  -0.001946   0.000005   0.000000
    30  H   -0.001945  -0.021217   0.377510  -0.021230  -0.001947   0.000005
    31  H   -0.001945  -0.021217   0.377510  -0.021230  -0.001947   0.000005
    32  H    0.000005  -0.001945  -0.021209   0.377532  -0.021237  -0.001921
    33  H    0.000005  -0.001945  -0.021209   0.377532  -0.021237  -0.001921
    34  H    0.000000   0.000004  -0.001942  -0.021337   0.378131  -0.021188
    35  H    0.000000   0.000004  -0.001942  -0.021337   0.378131  -0.021188
    36  H    0.000000   0.000000   0.000006  -0.001954  -0.019569   0.379494
    37  H    0.000000   0.000000   0.000006  -0.001954  -0.019569   0.379494
    38  H    0.000000   0.000000  -0.000013   0.001146  -0.018569   0.379546
              13         14         15         16         17         18
     1  C    0.379546   0.379494   0.379494  -0.021188  -0.021188  -0.001921
     2  C   -0.018569  -0.019569  -0.019569   0.378131   0.378131  -0.021237
     3  C    0.001146  -0.001954  -0.001954  -0.021337  -0.021337   0.377532
     4  C   -0.000013   0.000006   0.000006  -0.001942  -0.001942  -0.021209
     5  C    0.000000   0.000000   0.000000   0.000004   0.000004  -0.001945
     6  C    0.000000   0.000000   0.000000   0.000000   0.000000   0.000005
     7  C    0.000000   0.000000   0.000000   0.000000   0.000000   0.000000
     8  C    0.000000   0.000000   0.000000   0.000000   0.000000   0.000000
     9  C    0.000000   0.000000   0.000000   0.000000   0.000000   0.000000
    10  C    0.000000   0.000000   0.000000   0.000000   0.000000   0.000000
    11  C    0.000000   0.000000   0.000000   0.000000   0.000000   0.000000
    12  C    0.000000   0.000000   0.000000   0.000000   0.000000   0.000000
    13  H    0.612459  -0.020909  -0.020909  -0.002052  -0.002052   0.000006
    14  H   -0.020909   0.613507  -0.021156  -0.002171   0.001807  -0.000012
    15  H   -0.020909  -0.021156   0.613507   0.001807  -0.002171   0.000534
    16  H   -0.002052  -0.002171   0.001807   0.625069  -0.022909   0.001817
    17  H   -0.002052   0.001807  -0.002171  -0.022909   0.625069  -0.002204
    18  H    0.000006  -0.000012   0.000534   0.001817  -0.002204   0.626460
    19  H    0.000006   0.000534  -0.000012  -0.002204   0.001817  -0.022995
    20  H    0.000000   0.000002   0.000000   0.000541  -0.000002   0.001812
    21  H    0.000000   0.000000   0.000002  -0.000002   0.000541  -0.002193
    22  H    0.000000   0.000000   0.000000   0.000000   0.000002   0.000533
    23  H    0.000000   0.000000   0.000000   0.000002   0.000000  -0.000001
    24  H    0.000000   0.000000   0.000000   0.000000   0.000000   0.000000
    25  H    0.000000   0.000000   0.000000   0.000000   0.000000   0.000002
    26  H    0.000000   0.000000   0.000000   0.000000   0.000000   0.000000
    27  H    0.000000   0.000000   0.000000   0.000000   0.000000   0.000000
    28  H    0.000000   0.000000   0.000000   0.000000   0.000000   0.000000
    29  H    0.000000   0.000000   0.000000   0.000000   0.000000   0.000000
    30  H    0.000000   0.000000   0.000000   0.000000   0.000000   0.000000
    31  H    0.000000   0.000000   0.000000   0.000000   0.000000   0.000000
    32  H    0.000000   0.000000   0.000000   0.000000   0.000000   0.000000
    33  H    0.000000   0.000000   0.000000   0.000000   0.000000   0.000000
    34  H    0.000000   0.000000   0.000000   0.000000   0.000000   0.000000
    35  H    0.000000   0.000000   0.000000   0.000000   0.000000   0.000000
    36  H    0.000000   0.000000   0.000000   0.000000   0.000000   0.000000
    37  H    0.000000   0.000000   0.000000   0.000000   0.000000   0.000000
    38  H    0.000000   0.000000   0.000000   0.000000   0.000000   0.000000
              19         20         21         22         23         24
     1  C   -0.001921   0.000005   0.000005   0.000000   0.000000   0.000000
     2  C   -0.021237  -0.001947  -0.001947   0.000005   0.000005   0.000000
     3  C    0.377532  -0.021230  -0.021230  -0.001946  -0.001946   0.000005
     4  C   -0.021209   0.377510   0.377510  -0.021227  -0.021227  -0.001945
     5  C   -0.001945  -0.021217  -0.021217   0.377523   0.377523  -0.021227
     6  C    0.000005  -0.001945  -0.001945  -0.021225  -0.021225   0.377521
     7  C    0.000000   0.000005   0.000005  -0.001945  -0.001945  -0.021224
     8  C    0.000000   0.000000   0.000000   0.000005   0.000005  -0.001945
     9  C    0.000000   0.000000   0.000000   0.000000   0.000000   0.000005
    10  C    0.000000   0.000000   0.000000   0.000000   0.000000   0.000000
    11  C    0.000000   0.000000   0.000000   0.000000   0.000000   0.000000
    12  C    0.000000   0.000000   0.000000   0.000000   0.000000   0.000000
    13  H    0.000006   0.000000   0.000000   0.000000   0.000000   0.000000
    14  H    0.000534   0.000002   0.000000   0.000000   0.000000   0.000000
    15  H   -0.000012   0.000000   0.000002   0.000000   0.000000   0.000000
    16  H   -0.002204   0.000541  -0.000002   0.000000   0.000002   0.000000
    17  H    0.001817  -0.000002   0.000541   0.000002   0.000000   0.000000
    18  H   -0.022995   0.001812  -0.002193   0.000533  -0.000001   0.000000
    19  H    0.626460  -0.002193   0.001812  -0.000001   0.000533   0.000002
    20  H   -0.002193   0.626607  -0.023012   0.001812  -0.002195   0.000534
    21  H    0.001812  -0.023012   0.626607  -0.002195   0.001812  -0.000001
    22  H   -0.000001   0.001812  -0.002195   0.626568  -0.023008   0.001812
    23  H    0.000533  -0.002195   0.001812  -0.023008   0.626568  -0.002195
    24  H    0.000002   0.000534  -0.000001   0.001812  -0.002195   0.626586
    25  H    0.000000  -0.000001   0.000534  -0.002195   0.001812  -0.023009
    26  H    0.000000   0.000000   0.000002   0.000534  -0.000001   0.001812
    27  H    0.000000   0.000002   0.000000  -0.000001   0.000534  -0.002194
    28  H    0.000000   0.000000   0.000000   0.000000   0.000002   0.000534
    29  H    0.000000   0.000000   0.000000   0.000002   0.000000  -0.000001
    30  H    0.000000   0.000000   0.000000   0.000000   0.000000   0.000000
    31  H    0.000000   0.000000   0.000000   0.000000   0.000000   0.000002
    32  H    0.000000   0.000000   0.000000   0.000000   0.000000   0.000000
    33  H    0.000000   0.000000   0.000000   0.000000   0.000000   0.000000
    34  H    0.000000   0.000000   0.000000   0.000000   0.000000   0.000000
    35  H    0.000000   0.000000   0.000000   0.000000   0.000000   0.000000
    36  H    0.000000   0.000000   0.000000   0.000000   0.000000   0.000000
    37  H    0.000000   0.000000   0.000000   0.000000   0.000000   0.000000
    38  H    0.000000   0.000000   0.000000   0.000000   0.000000   0.000000
              25         26         27         28         29         30
     1  C    0.000000   0.000000   0.000000   0.000000   0.000000   0.000000
     2  C    0.000000   0.000000   0.000000   0.000000   0.000000   0.000000
     3  C    0.000005   0.000000   0.000000   0.000000   0.000000   0.000000
     4  C   -0.001945   0.000005   0.000005   0.000000   0.000000   0.000000
     5  C   -0.021227  -0.001945  -0.001945   0.000005   0.000005   0.000000
     6  C    0.377521  -0.021224  -0.021224  -0.001945  -0.001945   0.000005
     7  C   -0.021224   0.377521   0.377521  -0.021225  -0.021225  -0.001945
     8  C   -0.001945  -0.021227  -0.021227   0.377523   0.377523  -0.021217
     9  C    0.000005  -0.001945  -0.001945  -0.021227  -0.021227   0.377510
    10  C    0.000000   0.000005   0.000005  -0.001946  -0.001946  -0.021230
    11  C    0.000000   0.000000   0.000000   0.000005   0.000005  -0.001947
    12  C    0.000000   0.000000   0.000000   0.000000   0.000000   0.000005
    13  H    0.000000   0.000000   0.000000   0.000000   0.000000   0.000000
    14  H    0.000000   0.000000   0.000000   0.000000   0.000000   0.000000
    15  H    0.000000   0.000000   0.000000   0.000000   0.000000   0.000000
    16  H    0.000000   0.000000   0.000000   0.000000   0.000000   0.000000
    17  H    0.000000   0.000000   0.000000   0.000000   0.000000   0.000000
    18  H    0.000002   0.000000   0.000000   0.000000   0.000000   0.000000
    19  H    0.000000   0.000000   0.000000   0.000000   0.000000   0.000000
    20  H   -0.000001   0.000000   0.000002   0.000000   0.000000   0.000000
    21  H    0.000534   0.000002   0.000000   0.000000   0.000000   0.000000
    22  H   -0.002195   0.000534  -0.000001   0.000000   0.000002   0.000000
    23  H    0.001812  -0.000001   0.000534   0.000002   0.000000   0.000000
    24  H   -0.023009   0.001812  -0.002194   0.000534  -0.000001   0.000000
    25  H    0.626586  -0.002194   0.001812  -0.000001   0.000534   0.000002
    26  H   -0.002194   0.626586  -0.023009   0.001812  -0.002195   0.000534
    27  H    0.001812  -0.023009   0.626586  -0.002195   0.001812  -0.000001
    28  H   -0.000001   0.001812  -0.002195   0.626568  -0.023008   0.001812
    29  H    0.000534  -0.002195   0.001812  -0.023008   0.626568  -0.002195
    30  H    0.000002   0.000534  -0.000001   0.001812  -0.002195   0.626607
    31  H    0.000000  -0.000001   0.000534  -0.002195   0.001812  -0.023012
    32  H    0.000000   0.000000   0.000002   0.000533  -0.000001   0.001812
    33  H    0.000000   0.000002   0.000000  -0.000001   0.000533  -0.002193
    34  H    0.000000   0.000000   0.000000   0.000000   0.000002   0.000541
    35  H    0.000000   0.000000   0.000000   0.000002   0.000000  -0.000002
    36  H    0.000000   0.000000   0.000000   0.000000   0.000000   0.000000
    37  H    0.000000   0.000000   0.000000   0.000000   0.000000   0.000002
    38  H    0.000000   0.000000   0.000000   0.000000   0.000000   0.000000
              31         32         33         34         35         36
     1  C    0.000000   0.000000   0.000000   0.000000   0.000000   0.000000
     2  C    0.000000   0.000000   0.000000   0.000000   0.000000   0.000000
     3  C    0.000000   0.000000   0.000000   0.000000   0.000000   0.000000
     4  C    0.000000   0.000000   0.000000   0.000000   0.000000   0.000000
     5  C    0.000000   0.000000   0.000000   0.000000   0.000000   0.000000
     6  C    0.000005   0.000000   0.000000   0.000000   0.000000   0.000000
     7  C   -0.001945   0.000005   0.000005   0.000000   0.000000   0.000000
     8  C   -0.021217  -0.001945  -0.001945   0.000004   0.000004   0.000000
     9  C    0.377510  -0.021209  -0.021209  -0.001942  -0.001942   0.000006
    10  C   -0.021230   0.377532   0.377532  -0.021337  -0.021337  -0.001954
    11  C   -0.001947  -0.021237  -0.021237   0.378131   0.378131  -0.019569
    12  C    0.000005  -0.001921  -0.001921  -0.021188  -0.021188   0.379494
    13  H    0.000000   0.000000   0.000000   0.000000   0.000000   0.000000
    14  H    0.000000   0.000000   0.000000   0.000000   0.000000   0.000000
    15  H    0.000000   0.000000   0.000000   0.000000   0.000000   0.000000
    16  H    0.000000   0.000000   0.000000   0.000000   0.000000   0.000000
    17  H    0.000000   0.000000   0.000000   0.000000   0.000000   0.000000
    18  H    0.000000   0.000000   0.000000   0.000000   0.000000   0.000000
    19  H    0.000000   0.000000   0.000000   0.000000   0.000000   0.000000
    20  H    0.000000   0.000000   0.000000   0.000000   0.000000   0.000000
    21  H    0.000000   0.000000   0.000000   0.000000   0.000000   0.000000
    22  H    0.000000   0.000000   0.000000   0.000000   0.000000   0.000000
    23  H    0.000000   0.000000   0.000000   0.000000   0.000000   0.000000
    24  H    0.000002   0.000000   0.000000   0.000000   0.000000   0.000000
    25  H    0.000000   0.000000   0.000000   0.000000   0.000000   0.000000
    26  H   -0.000001   0.000000   0.000002   0.000000   0.000000   0.000000
    27  H    0.000534   0.000002   0.000000   0.000000   0.000000   0.000000
    28  H   -0.002195   0.000533  -0.000001   0.000000   0.000002   0.000000
    29  H    0.001812  -0.000001   0.000533   0.000002   0.000000   0.000000
    30  H   -0.023012   0.001812  -0.002193   0.000541  -0.000002   0.000000
    31  H    0.626607  -0.002193   0.001812  -0.000002   0.000541   0.000002
    32  H   -0.002193   0.626460  -0.022995   0.001817  -0.002204   0.000534
    33  H    0.001812  -0.022995   0.626460  -0.002204   0.001817  -0.000012
    34  H   -0.000002   0.001817  -0.002204   0.625069  -0.022909   0.001807
    35  H    0.000541  -0.002204   0.001817  -0.022909   0.625069  -0.002171
    36  H    0.000002   0.000534  -0.000012   0.001807  -0.002171   0.613507
    37  H    0.000000  -0.000012   0.000534  -0.002171   0.001807  -0.021156
    38  H    0.000000   0.000006   0.000006  -0.002052  -0.002052  -0.020909
              37         38
     1  C    0.000000   0.000000
     2  C    0.000000   0.000000
     3  C    0.000000   0.000000
     4  C    0.000000   0.000000
     5  C    0.000000   0.000000
     6  C    0.000000   0.000000
     7  C    0.000000   0.000000
     8  C    0.000000   0.000000
     9  C    0.000006  -0.000013
    10  C   -0.001954   0.001146
    11  C   -0.019569  -0.018569
    12  C    0.379494   0.379546
    13  H    0.000000   0.000000
    14  H    0.000000   0.000000
    15  H    0.000000   0.000000
    16  H    0.000000   0.000000
    17  H    0.000000   0.000000
    18  H    0.000000   0.000000
    19  H    0.000000   0.000000
    20  H    0.000000   0.000000
    21  H    0.000000   0.000000
    22  H    0.000000   0.000000
    23  H    0.000000   0.000000
    24  H    0.000000   0.000000
    25  H    0.000000   0.000000
    26  H    0.000000   0.000000
    27  H    0.000000   0.000000
    28  H    0.000000   0.000000
    29  H    0.000000   0.000000
    30  H    0.000002   0.000000
    31  H    0.000000   0.000000
    32  H   -0.000012   0.000006
    33  H    0.000534   0.000006
    34  H   -0.002171  -0.002052
    35  H    0.001807  -0.002052
    36  H   -0.021156  -0.020909
    37  H    0.613507  -0.020909
    38  H   -0.020909   0.612459
 Mulliken charges:
               1
     1  C   -0.218026
     2  C   -0.127654
     3  C   -0.129461
     4  C   -0.129926
     5  C   -0.129802
     6  C   -0.129813
     7  C   -0.129813
     8  C   -0.129802
     9  C   -0.129926
    10  C   -0.129461
    11  C   -0.127654
    12  C   -0.218026
    13  H    0.071339
    14  H    0.070422
    15  H    0.070422
    16  H    0.066434
    17  H    0.066434
    18  H    0.065017
    19  H    0.065017
    20  H    0.064916
    21  H    0.064916
    22  H    0.064950
    23  H    0.064950
    24  H    0.064933
    25  H    0.064933
    26  H    0.064933
    27  H    0.064933
    28  H    0.064950
    29  H    0.064950
    30  H    0.064916
    31  H    0.064916
    32  H    0.065017
    33  H    0.065017
    34  H    0.066434
    35  H    0.066434
    36  H    0.070422
    37  H    0.070422
    38  H    0.071339
 Sum of Mulliken charges =   0.00000
 Mulliken charges with hydrogens summed into heavy atoms:
               1
     1  C   -0.005843
     2  C    0.005215
     3  C    0.000572
     4  C   -0.000094
     5  C    0.000097
     6  C    0.000053
     7  C    0.000053
     8  C    0.000097
     9  C   -0.000094
    10  C    0.000572
    11  C    0.005215
    12  C   -0.005843
 Electronic spatial extent (au):  <R**2>=           7718.4415
 Charge=              0.0000 electrons
 Dipole moment (field-independent basis, Debye):
    X=              0.0000    Y=              0.0000    Z=              0.0000  Tot=              0.0000
 Quadrupole moment (field-independent basis, Debye-Ang):
   XX=            -77.2501   YY=            -75.9221   ZZ=            -74.7208
   XY=              0.2686   XZ=              0.0000   YZ=              0.0000
 Traceless Quadrupole moment (field-independent basis, Debye-Ang):
   XX=             -1.2858   YY=              0.0422   ZZ=              1.2435
   XY=              0.2686   XZ=              0.0000   YZ=              0.0000
 Octapole moment (field-independent basis, Debye-Ang**2):
  XXX=              0.0000  YYY=              0.0000  ZZZ=              0.0000  XYY=              0.0000
  XXY=              0.0000  XXZ=              0.0000  XZZ=              0.0000  YZZ=              0.0000
  YYZ=              0.0000  XYZ=              0.0000
 Hexadecapole moment (field-independent basis, Debye-Ang**3):
 XXXX=          -9736.7832 YYYY=           -256.7904 ZZZZ=           -143.4077 XXXY=             42.8837
 XXXZ=              0.0000 YYYX=              0.4071 YYYZ=              0.0000 ZZZX=              0.0000
 ZZZY=              0.0000 XXYY=          -1642.9607 XXZZ=          -1608.1341 YYZZ=            -57.6101
 XXYZ=              0.0000 YYXZ=              0.0000 ZZXY=             -4.7419
 N-N= 6.618140799848D+02 E-N=-2.401783322331D+03  KE= 4.589284198853D+02
 1\1\GINC-MW\FOpt\RB3LYP\STO-3G\C12H26\BING\25-Feb-2019\0\\# opt(tight)
  b3lyp/sto-3g\\c12h26\\0,1\C,0.0643497626,-1.1471687649,-2.5226473325\
 C,0.4890542725,-2.5185173088,-1.9225769054\C,1.7665949526,-2.407314448
 ,-1.032777036\C,2.1922244379,-3.7830826326,-0.4310899549\C,3.469770105
 2,-3.671501782,0.4586332437\C,3.8954558702,-5.0473720475,1.0603850397\
 C,5.1730289974,-4.9357179453,1.9501148028\C,5.5987109132,-6.311589163,
 2.5518671797\C,6.8762537494,-6.2000134861,3.44159506\C,7.3018728237,-7
 .5757844086,4.0432833034\C,8.5794091332,-7.4645910267,4.9330906072\C,9
 .0041000367,-8.8359438771,5.5331609191\H,-0.837727517,-1.2585316868,-3
 .1438441618\H,0.8674477072,-0.7323566283,-3.1509640328\H,-0.1544646639
 ,-0.4236984875,-1.7223172197\H,0.6780601457,-3.2337726894,-2.742139943
 8\H,-0.3403049394,-2.9261860781,-1.3184521813\H,1.578163702,-1.6926393
 271,-0.2125507127\H,2.5966454132,-2.0002615356,-1.6364014035\H,2.38032
 70779,-4.4975012259,-1.2516278924\H,1.3618255114,-4.1898733903,0.17224
 90595\H,3.2816313754,-2.9570707436,1.2791422829\H,4.3001333311,-3.2647
 002352,-0.1447344074\H,4.0836005815,-5.7618013671,0.2398751058\H,3.065
 093357,-5.4541709511,1.6637563508\H,4.9848849231,-4.2212880218,2.77062
 43143\H,6.0033924363,-4.5289205333,1.3467437037\H,5.7868500292,-7.0260
 20089,1.7313580616\H,4.7683450545,-6.7183890332,3.1552322371\H,6.68815
 18088,-5.4855941252,4.2621324962\H,7.7066568657,-5.7932268359,2.838259
 0573\H,7.4903036677,-8.2904597638,3.2230570151\H,6.4718170644,-7.98283
 29629,4.64690321\H,8.3904043461,-6.7493353217,5.7526537043\H,9.4087743
 677,-7.0569276228,4.3289706606\H,9.2229125808,-9.5594144022,4.73283051
 94\H,8.2009955692,-9.2507506437,6.161472823\H,9.9061751296,-8.72458939
 8,6.1543624369\\Version=ES64L-G09RevD.01\State=1-A\HF=-467.3675654\RMS
 D=6.615e-09\RMSF=2.660e-07\Dipole=-0.0000003,-0.0000005,0.\Quadrupole=
 0.0390404,-0.3601903,0.3211499,0.2923041,-0.6965539,0.4866539\PG=C01 [
 X(C12H26)]\\@


 YOU ARE IN A MAZE OF TWISTY LITTLE PASSAGES.
 Job cpu time:       0 days  0 hours  1 minutes 40.7 seconds.
 File lengths (MBytes):  RWF=      8 Int=      0 D2E=      0 Chk=      3 Scr=      1
 Normal termination of Gaussian 09 at Mon Feb 25 22:31:56 2019.
