 Entering Gaussian System, Link 0=g09
 Input=c12h14.com
 Output=c12h14.out
 Initial command:
 /home/bing/src/g09_d.01/g09/l1.exe "/data/trash/Gau-2797.inp" -scrdir="/data/trash/"
 Entering Link 1 = /home/bing/src/g09_d.01/g09/l1.exe PID=      2806.
  
 Copyright (c) 1988,1990,1992,1993,1995,1998,2003,2009,2013,
            Gaussian, Inc.  All Rights Reserved.
  
 This is part of the Gaussian(R) 09 program.  It is based on
 the Gaussian(R) 03 system (copyright 2003, Gaussian, Inc.),
 the Gaussian(R) 98 system (copyright 1998, Gaussian, Inc.),
 the Gaussian(R) 94 system (copyright 1995, Gaussian, Inc.),
 the Gaussian 92(TM) system (copyright 1992, Gaussian, Inc.),
 the Gaussian 90(TM) system (copyright 1990, Gaussian, Inc.),
 the Gaussian 88(TM) system (copyright 1988, Gaussian, Inc.),
 the Gaussian 86(TM) system (copyright 1986, Carnegie Mellon
 University), and the Gaussian 82(TM) system (copyright 1983,
 Carnegie Mellon University). Gaussian is a federally registered
 trademark of Gaussian, Inc.
  
 This software contains proprietary and confidential information,
 including trade secrets, belonging to Gaussian, Inc.
  
 This software is provided under written license and may be
 used, copied, transmitted, or stored only in accord with that
 written license.
  
 The following legend is applicable only to US Government
 contracts under FAR:
  
                    RESTRICTED RIGHTS LEGEND
  
 Use, reproduction and disclosure by the US Government is
 subject to restrictions as set forth in subparagraphs (a)
 and (c) of the Commercial Computer Software - Restricted
 Rights clause in FAR 52.227-19.
  
 Gaussian, Inc.
 340 Quinnipiac St., Bldg. 40, Wallingford CT 06492
  
  
 ---------------------------------------------------------------
 Warning -- This program may not be used in any manner that
 competes with the business of Gaussian, Inc. or will provide
 assistance to any competitor of Gaussian, Inc.  The licensee
 of this program is prohibited from giving any competitor of
 Gaussian, Inc. access to this program.  By using this program,
 the user acknowledges that Gaussian, Inc. is engaged in the
 business of creating and licensing software in the field of
 computational chemistry and represents and warrants to the
 licensee that it is not a competitor of Gaussian, Inc. and that
 it will not use this program in any manner prohibited above.
 ---------------------------------------------------------------
  

 Cite this work as:
 Gaussian 09, Revision D.01,
 M. J. Frisch, G. W. Trucks, H. B. Schlegel, G. E. Scuseria, 
 M. A. Robb, J. R. Cheeseman, G. Scalmani, V. Barone, B. Mennucci, 
 G. A. Petersson, H. Nakatsuji, M. Caricato, X. Li, H. P. Hratchian, 
 A. F. Izmaylov, J. Bloino, G. Zheng, J. L. Sonnenberg, M. Hada, 
 M. Ehara, K. Toyota, R. Fukuda, J. Hasegawa, M. Ishida, T. Nakajima, 
 Y. Honda, O. Kitao, H. Nakai, T. Vreven, J. A. Montgomery, Jr., 
 J. E. Peralta, F. Ogliaro, M. Bearpark, J. J. Heyd, E. Brothers, 
 K. N. Kudin, V. N. Staroverov, T. Keith, R. Kobayashi, J. Normand, 
 K. Raghavachari, A. Rendell, J. C. Burant, S. S. Iyengar, J. Tomasi, 
 M. Cossi, N. Rega, J. M. Millam, M. Klene, J. E. Knox, J. B. Cross, 
 V. Bakken, C. Adamo, J. Jaramillo, R. Gomperts, R. E. Stratmann, 
 O. Yazyev, A. J. Austin, R. Cammi, C. Pomelli, J. W. Ochterski, 
 R. L. Martin, K. Morokuma, V. G. Zakrzewski, G. A. Voth, 
 P. Salvador, J. J. Dannenberg, S. Dapprich, A. D. Daniels, 
 O. Farkas, J. B. Foresman, J. V. Ortiz, J. Cioslowski, 
 and D. J. Fox, Gaussian, Inc., Wallingford CT, 2013.
 
 ******************************************
 Gaussian 09:  ES64L-G09RevD.01 24-Apr-2013
                25-Feb-2019 
 ******************************************
 %nproc=6
 Will use up to    6 processors via shared memory.
 -------------------------
 # opt(tight) b3lyp/sto-3g
 -------------------------
 1/7=10,14=-1,18=20,19=15,26=3,38=1/1,3;
 2/9=110,12=2,17=6,18=5,40=1/2;
 3/6=3,11=2,16=1,25=1,30=1,71=1,74=-5/1,2,3;
 4//1;
 5/5=2,38=5/2;
 6/7=2,8=2,9=2,10=2,28=1/1;
 7//1,2,3,16;
 1/7=10,14=-1,18=20,19=15,26=3/3(2);
 2/9=110/2;
 99//99;
 2/9=110/2;
 3/6=3,11=2,16=1,25=1,30=1,71=1,74=-5/1,2,3;
 4/5=5,16=3,69=1/1;
 5/5=2,38=5/2;
 7//1,2,3,16;
 1/7=10,14=-1,18=20,19=15,26=3/3(-5);
 2/9=110/2;
 6/7=2,8=2,9=2,10=2,19=2,28=1/1;
 99/9=1/99;
 ------
 c12h14
 ------
 Symbolic Z-matrix:
 Charge =  0 Multiplicity = 1
 C                     1.09939  -0.28043  -0.28372 
 C                     1.70996   0.53794  -1.16475 
 C                     3.17187   0.7294   -1.23926 
 C                     3.784     1.5592   -2.13329 
 C                     5.23478   1.75243  -2.21096 
 C                     5.8467    2.58497  -3.10816 
 C                     7.2952    2.77857  -3.18648 
 C                     7.90712   3.61111  -4.08368 
 C                     9.35789   3.80434  -4.16135 
 C                     9.97003   4.63414  -5.05538 
 C                     11.43193   4.8256   -5.12989 
 C                     12.0425   5.64397  -6.01092 
 H                     1.66877  -0.86668   0.44786 
 H                     0.00943  -0.39503  -0.26055 
 H                     1.10799   1.11179  -1.8853 
 H                     3.78291   0.16016  -0.52311 
 H                     3.16937   2.12678  -2.8479 
 H                     5.85078   1.18561  -1.49709 
 H                     5.22997   3.15146  -3.82172 
 H                     7.91192   2.21208  -2.47292 
 H                     7.29111   4.17793  -4.79755 
 H                     9.97253   3.23676  -3.44674 
 H                     9.35899   5.20338  -5.77153 
 H                     12.0339   4.25175  -4.40934 
 H                     13.13246   5.75857  -6.03409 
 H                     11.47312   6.23022  -6.7425 
 

 GradGradGradGradGradGradGradGradGradGradGradGradGradGradGradGradGradGrad
 Berny optimization.
 Initialization pass.
                           ----------------------------
                           !    Initial Parameters    !
                           ! (Angstroms and Degrees)  !
 --------------------------                            --------------------------
 ! Name  Definition              Value          Derivative Info.                !
 --------------------------------------------------------------------------------
 ! R1    R(1,2)                  1.3486         estimate D2E/DX2                !
 ! R2    R(1,13)                 1.0968         estimate D2E/DX2                !
 ! R3    R(1,14)                 1.0962         estimate D2E/DX2                !
 ! R4    R(2,3)                  1.4763         estimate D2E/DX2                !
 ! R5    R(2,15)                 1.1004         estimate D2E/DX2                !
 ! R6    R(3,4)                  1.3648         estimate D2E/DX2                !
 ! R7    R(3,16)                 1.1001         estimate D2E/DX2                !
 ! R8    R(4,5)                  1.4656         estimate D2E/DX2                !
 ! R9    R(4,17)                 1.1003         estimate D2E/DX2                !
 ! R10   R(5,6)                  1.3684         estimate D2E/DX2                !
 ! R11   R(5,18)                 1.1002         estimate D2E/DX2                !
 ! R12   R(6,7)                  1.4635         estimate D2E/DX2                !
 ! R13   R(6,19)                 1.1002         estimate D2E/DX2                !
 ! R14   R(7,8)                  1.3684         estimate D2E/DX2                !
 ! R15   R(7,20)                 1.1002         estimate D2E/DX2                !
 ! R16   R(8,9)                  1.4656         estimate D2E/DX2                !
 ! R17   R(8,21)                 1.1002         estimate D2E/DX2                !
 ! R18   R(9,10)                 1.3648         estimate D2E/DX2                !
 ! R19   R(9,22)                 1.1003         estimate D2E/DX2                !
 ! R20   R(10,11)                1.4763         estimate D2E/DX2                !
 ! R21   R(10,23)                1.1001         estimate D2E/DX2                !
 ! R22   R(11,12)                1.3486         estimate D2E/DX2                !
 ! R23   R(11,24)                1.1004         estimate D2E/DX2                !
 ! R24   R(12,25)                1.0962         estimate D2E/DX2                !
 ! R25   R(12,26)                1.0968         estimate D2E/DX2                !
 ! A1    A(2,1,13)             121.6713         estimate D2E/DX2                !
 ! A2    A(2,1,14)             121.8299         estimate D2E/DX2                !
 ! A3    A(13,1,14)            116.4988         estimate D2E/DX2                !
 ! A4    A(1,2,3)              124.0562         estimate D2E/DX2                !
 ! A5    A(1,2,15)             119.7733         estimate D2E/DX2                !
 ! A6    A(3,2,15)             116.1705         estimate D2E/DX2                !
 ! A7    A(2,3,4)              123.7854         estimate D2E/DX2                !
 ! A8    A(2,3,16)             116.7479         estimate D2E/DX2                !
 ! A9    A(4,3,16)             119.4667         estimate D2E/DX2                !
 ! A10   A(3,4,5)              123.977          estimate D2E/DX2                !
 ! A11   A(3,4,17)             119.2459         estimate D2E/DX2                !
 ! A12   A(5,4,17)             116.7771         estimate D2E/DX2                !
 ! A13   A(4,5,6)              123.8902         estimate D2E/DX2                !
 ! A14   A(4,5,18)             116.8673         estimate D2E/DX2                !
 ! A15   A(6,5,18)             119.2426         estimate D2E/DX2                !
 ! A16   A(5,6,7)              123.9299         estimate D2E/DX2                !
 ! A17   A(5,6,19)             119.1983         estimate D2E/DX2                !
 ! A18   A(7,6,19)             116.8718         estimate D2E/DX2                !
 ! A19   A(6,7,8)              123.9299         estimate D2E/DX2                !
 ! A20   A(6,7,20)             116.8718         estimate D2E/DX2                !
 ! A21   A(8,7,20)             119.1983         estimate D2E/DX2                !
 ! A22   A(7,8,9)              123.8902         estimate D2E/DX2                !
 ! A23   A(7,8,21)             119.2426         estimate D2E/DX2                !
 ! A24   A(9,8,21)             116.8673         estimate D2E/DX2                !
 ! A25   A(8,9,10)             123.977          estimate D2E/DX2                !
 ! A26   A(8,9,22)             116.7771         estimate D2E/DX2                !
 ! A27   A(10,9,22)            119.2459         estimate D2E/DX2                !
 ! A28   A(9,10,11)            123.7854         estimate D2E/DX2                !
 ! A29   A(9,10,23)            119.4667         estimate D2E/DX2                !
 ! A30   A(11,10,23)           116.7479         estimate D2E/DX2                !
 ! A31   A(10,11,12)           124.0562         estimate D2E/DX2                !
 ! A32   A(10,11,24)           116.1705         estimate D2E/DX2                !
 ! A33   A(12,11,24)           119.7733         estimate D2E/DX2                !
 ! A34   A(11,12,25)           121.8299         estimate D2E/DX2                !
 ! A35   A(11,12,26)           121.6713         estimate D2E/DX2                !
 ! A36   A(25,12,26)           116.4988         estimate D2E/DX2                !
 ! D1    D(13,1,2,3)             0.0            estimate D2E/DX2                !
 ! D2    D(13,1,2,15)          180.0            estimate D2E/DX2                !
 ! D3    D(14,1,2,3)          -180.0            estimate D2E/DX2                !
 ! D4    D(14,1,2,15)            0.0            estimate D2E/DX2                !
 ! D5    D(1,2,3,4)            180.0            estimate D2E/DX2                !
 ! D6    D(1,2,3,16)             0.0            estimate D2E/DX2                !
 ! D7    D(15,2,3,4)             0.0            estimate D2E/DX2                !
 ! D8    D(15,2,3,16)          180.0            estimate D2E/DX2                !
 ! D9    D(2,3,4,5)            180.0            estimate D2E/DX2                !
 ! D10   D(2,3,4,17)             0.0            estimate D2E/DX2                !
 ! D11   D(16,3,4,5)             0.0            estimate D2E/DX2                !
 ! D12   D(16,3,4,17)         -180.0            estimate D2E/DX2                !
 ! D13   D(3,4,5,6)           -180.0            estimate D2E/DX2                !
 ! D14   D(3,4,5,18)             0.0            estimate D2E/DX2                !
 ! D15   D(17,4,5,6)             0.0            estimate D2E/DX2                !
 ! D16   D(17,4,5,18)          180.0            estimate D2E/DX2                !
 ! D17   D(4,5,6,7)            180.0            estimate D2E/DX2                !
 ! D18   D(4,5,6,19)             0.0            estimate D2E/DX2                !
 ! D19   D(18,5,6,7)             0.0            estimate D2E/DX2                !
 ! D20   D(18,5,6,19)         -180.0            estimate D2E/DX2                !
 ! D21   D(5,6,7,8)           -180.0            estimate D2E/DX2                !
 ! D22   D(5,6,7,20)             0.0            estimate D2E/DX2                !
 ! D23   D(19,6,7,8)             0.0            estimate D2E/DX2                !
 ! D24   D(19,6,7,20)          180.0            estimate D2E/DX2                !
 ! D25   D(6,7,8,9)            180.0            estimate D2E/DX2                !
 ! D26   D(6,7,8,21)             0.0            estimate D2E/DX2                !
 ! D27   D(20,7,8,9)             0.0            estimate D2E/DX2                !
 ! D28   D(20,7,8,21)         -180.0            estimate D2E/DX2                !
 ! D29   D(7,8,9,10)          -180.0            estimate D2E/DX2                !
 ! D30   D(7,8,9,22)             0.0            estimate D2E/DX2                !
 ! D31   D(21,8,9,10)            0.0            estimate D2E/DX2                !
 ! D32   D(21,8,9,22)          180.0            estimate D2E/DX2                !
 ! D33   D(8,9,10,11)          180.0            estimate D2E/DX2                !
 ! D34   D(8,9,10,23)            0.0            estimate D2E/DX2                !
 ! D35   D(22,9,10,11)           0.0            estimate D2E/DX2                !
 ! D36   D(22,9,10,23)        -180.0            estimate D2E/DX2                !
 ! D37   D(9,10,11,12)         180.0            estimate D2E/DX2                !
 ! D38   D(9,10,11,24)           0.0            estimate D2E/DX2                !
 ! D39   D(23,10,11,12)          0.0            estimate D2E/DX2                !
 ! D40   D(23,10,11,24)        180.0            estimate D2E/DX2                !
 ! D41   D(10,11,12,25)       -180.0            estimate D2E/DX2                !
 ! D42   D(10,11,12,26)          0.0            estimate D2E/DX2                !
 ! D43   D(24,11,12,25)          0.0            estimate D2E/DX2                !
 ! D44   D(24,11,12,26)        180.0            estimate D2E/DX2                !
 --------------------------------------------------------------------------------
 Trust Radius=3.00D-01 FncErr=1.00D-07 GrdErr=1.00D-06
 Number of steps in this run=    115 maximum allowed number of steps=    156.
 GradGradGradGradGradGradGradGradGradGradGradGradGradGradGradGradGradGrad

                          Input orientation:                          
 ---------------------------------------------------------------------
 Center     Atomic      Atomic             Coordinates (Angstroms)
 Number     Number       Type             X           Y           Z
 ---------------------------------------------------------------------
      1          6           0        1.099391   -0.280433   -0.283716
      2          6           0        1.709960    0.537941   -1.164748
      3          6           0        3.171865    0.729396   -1.239261
      4          6           0        3.784002    1.559196   -2.133287
      5          6           0        5.234775    1.752432   -2.210961
      6          6           0        5.846696    2.584967   -3.108158
      7          6           0        7.295197    2.778572   -3.186483
      8          6           0        7.907118    3.611107   -4.083679
      9          6           0        9.357892    3.804343   -4.161353
     10          6           0        9.970028    4.634144   -5.055379
     11          6           0       11.431933    4.825598   -5.129892
     12          6           0       12.042502    5.643973   -6.010924
     13          1           0        1.668774   -0.866677    0.447855
     14          1           0        0.009435   -0.395033   -0.260555
     15          1           0        1.107990    1.111790   -1.885303
     16          1           0        3.782907    0.160162   -0.523112
     17          1           0        3.169366    2.126780   -2.847896
     18          1           0        5.850783    1.185609   -1.497092
     19          1           0        5.229969    3.151457   -3.821716
     20          1           0        7.911924    2.212082   -2.472924
     21          1           0        7.291110    4.177930   -4.797548
     22          1           0        9.972528    3.236759   -3.446744
     23          1           0        9.358986    5.203377   -5.771528
     24          1           0       12.033903    4.251750   -4.409337
     25          1           0       13.132458    5.758572   -6.034085
     26          1           0       11.473119    6.230217   -6.742495
 ---------------------------------------------------------------------
                    Distance matrix (angstroms):
                    1          2          3          4          5
     1  C    0.000000
     2  C    1.348610   0.000000
     3  C    2.495590   1.476270   0.000000
     4  C    3.743298   2.506527   1.364757   0.000000
     5  C    4.994819   3.872192   2.499281   1.465646   0.000000
     6  C    6.222933   5.007967   3.753750   2.501457   1.368402
     7  C    7.494770   6.348441   4.999267   3.863236   2.499989
     8  C    8.713722   7.507947   6.230377   5.001446   3.755418
     9  C    9.996214   8.839676   7.500723   6.342081   5.001446
    10  C   11.207589  10.007228   8.719223   7.500723   6.230377
    11  C   12.502736  11.341213  10.007228   8.839676   7.507947
    12  C   13.698583  12.502736  11.207589   9.996214   8.713722
    13  H    1.096847   2.138957   2.766422   4.125693   5.161919
    14  H    1.096209   2.140045   3.496165   4.644727   5.976610
    15  H    2.122131   1.100395   2.196173   2.724464   4.188893
    16  H    2.729962   2.202617   1.100122   2.133064   2.737166
    17  H    4.080992   2.736286   2.130821   1.100271   2.193568
    18  H    5.118328   4.204323   2.729690   2.194515   1.100165
    19  H    6.430940   5.126442   4.095272   2.734394   2.133501
    20  H    7.577326   6.555793   5.117464   4.193013   2.728924
    21  H    8.865048   7.589202   6.443755   5.124048   4.099023
    22  H   10.055244   8.986720   7.576864   6.545017   5.116315
    23  H   11.331777  10.074537   8.879100   7.589289   6.449478
    24  H   12.534950  11.441308  10.049481   8.971684   7.570177
    25  H   14.640049  13.469925  12.144809  10.965611   9.645664
    26  H   13.846250  12.602878  11.377849  10.108698   8.916406
                    6          7          8          9         10
     6  C    0.000000
     7  C    1.463480   0.000000
     8  C    2.499989   1.368402   0.000000
     9  C    3.863236   2.501457   1.465646   0.000000
    10  C    4.999267   3.753750   2.499281   1.364757   0.000000
    11  C    6.348441   5.007967   3.872192   2.506527   1.476270
    12  C    7.494770   6.222933   4.994819   3.743298   2.495590
    13  H    6.481829   7.625805   8.916406  10.108698  11.377849
    14  H    7.145828   8.468480   9.645664  10.965611  12.144809
    15  H    5.110866   6.538560   7.570177   8.971684  10.049481
    16  H    4.101385   5.126967   6.449478   7.589289   8.879100
    17  H    2.728694   4.190699   5.116315   6.545017   7.576864
    18  H    2.133952   2.734576   4.099023   5.124048   6.443755
    19  H    1.100194   2.192654   2.728924   4.193013   5.117464
    20  H    2.192654   1.100194   2.133501   2.734394   4.095272
    21  H    2.734576   2.133952   1.100165   2.194515   2.729690
    22  H    4.190699   2.728694   2.193568   1.100271   2.130821
    23  H    5.126967   4.101385   2.737166   2.133064   1.100122
    24  H    6.538560   5.110866   4.188893   2.724464   2.196173
    25  H    8.468480   7.145828   5.976610   4.644727   3.496165
    26  H    7.625805   6.481829   5.161919   4.125693   2.766422
                   11         12         13         14         15
    11  C    0.000000
    12  C    1.348610   0.000000
    13  H   12.602878  13.846250   0.000000
    14  H   13.469925  14.640049   1.864859   0.000000
    15  H   11.441307  12.534950   3.110054   2.473286   0.000000
    16  H   10.074537  11.331777   2.542978   3.823123   3.149022
    17  H    8.986720  10.055244   4.698355   4.799900   2.491196
    18  H    7.589202   8.865048   5.048158   6.176471   4.759226
    19  H    6.555793   7.577326   6.859793   7.246616   4.990055
    20  H    5.126442   6.430940   7.548949   8.610514   6.917330
    21  H    4.204323   5.118328   9.196357   9.722093   7.490885
    22  H    2.736286   4.080992  10.047807  11.072711   9.248438
    23  H    2.202617   2.729962  11.604553  12.211762   9.996137
    24  H    1.100395   2.122131  12.539000  13.542260  11.644984
    25  H    2.140045   1.096209  14.741966  15.601739  13.542260
    26  H    2.138957   1.096847  14.078077  14.741966  12.539000
                   16         17         18         19         20
    16  H    0.000000
    17  H    3.106226   0.000000
    18  H    2.505252   3.146502   0.000000
    19  H    4.682160   2.498875   3.107063   0.000000
    20  H    5.006088   4.758123   2.500839   3.145559   0.000000
    21  H    6.835258   4.999714   4.682044   2.500839   3.107063
    22  H    7.504963   6.919081   4.999714   4.758123   2.498875
    23  H    9.169108   7.504963   6.835258   5.006088   4.682160
    24  H    9.996137   9.248438   7.490885   6.917330   4.990055
    25  H   12.211762  11.072711   9.722093   8.610514   7.246616
    26  H   11.604553  10.047807   9.196357   7.548949   6.859793
                   21         22         23         24         25
    21  H    0.000000
    22  H    3.146502   0.000000
    23  H    2.505252   3.106226   0.000000
    24  H    4.759226   2.491196   3.149022   0.000000
    25  H    6.176471   4.799900   3.823123   2.473286   0.000000
    26  H    5.048158   4.698355   2.542978   3.110054   1.864859
                   26
    26  H    0.000000
 Stoichiometry    C12H14
 Framework group  C2H[SGH(C12H14)]
 Deg. of freedom    25
 Full point group                 C2H     NOp   4
 Largest Abelian subgroup         C2H     NOp   4
 Largest concise Abelian subgroup C2      NOp   2
                         Standard orientation:                         
 ---------------------------------------------------------------------
 Center     Atomic      Atomic             Coordinates (Angstroms)
 Number     Number       Type             X           Y           Z
 ---------------------------------------------------------------------
      1          6           0        0.197609    6.846440    0.000000
      2          6           0        0.757904    5.619730    0.000000
      3          6           0       -0.011146    4.359597    0.000000
      4          6           0        0.561718    3.120892    0.000000
      5          6           0       -0.197609    1.867282    0.000000
      6          6           0        0.378668    0.626142    0.000000
      7          6           0       -0.378668   -0.626142    0.000000
      8          6           0        0.197609   -1.867282    0.000000
      9          6           0       -0.561718   -3.120892    0.000000
     10          6           0        0.011146   -4.359597    0.000000
     11          6           0       -0.757904   -5.619730    0.000000
     12          6           0       -0.197609   -6.846440    0.000000
     13          1           0       -0.890774    6.982448    0.000000
     14          1           0        0.804589    7.759265    0.000000
     15          1           0        1.853726    5.519521    0.000000
     16          1           0       -1.107651    4.448735    0.000000
     17          1           0        1.658707    3.035970    0.000000
     18          1           0       -1.294624    1.950470    0.000000
     19          1           0        1.475777    0.543800    0.000000
     20          1           0       -1.475777   -0.543800    0.000000
     21          1           0        1.294624   -1.950470    0.000000
     22          1           0       -1.658707   -3.035970    0.000000
     23          1           0        1.107651   -4.448735    0.000000
     24          1           0       -1.853726   -5.519521    0.000000
     25          1           0       -0.804589   -7.759265    0.000000
     26          1           0        0.890774   -6.982448    0.000000
 ---------------------------------------------------------------------
 Rotational constants (GHZ):     12.5798576      0.1670228      0.1648343
 Standard basis: STO-3G (5D, 7F)
 There are    31 symmetry adapted cartesian basis functions of AG  symmetry.
 There are     6 symmetry adapted cartesian basis functions of BG  symmetry.
 There are     6 symmetry adapted cartesian basis functions of AU  symmetry.
 There are    31 symmetry adapted cartesian basis functions of BU  symmetry.
 There are    31 symmetry adapted basis functions of AG  symmetry.
 There are     6 symmetry adapted basis functions of BG  symmetry.
 There are     6 symmetry adapted basis functions of AU  symmetry.
 There are    31 symmetry adapted basis functions of BU  symmetry.
    74 basis functions,   222 primitive gaussians,    74 cartesian basis functions
    43 alpha electrons       43 beta electrons
       nuclear repulsion energy       527.3425302914 Hartrees.
 NAtoms=   26 NActive=   26 NUniq=   13 SFac= 4.00D+00 NAtFMM=   60 NAOKFM=F Big=F
 Integral buffers will be    131072 words long.
 Raffenetti 2 integral format.
 Two-electron integral symmetry is turned on.
 One-electron integrals computed using PRISM.
 NBasis=    74 RedAO= T EigKep=  1.94D-01  NBF=    31     6     6    31
 NBsUse=    74 1.00D-06 EigRej= -1.00D+00 NBFU=    31     6     6    31
 ExpMin= 1.69D-01 ExpMax= 7.16D+01 ExpMxC= 7.16D+01 IAcc=1 IRadAn=         1 AccDes= 0.00D+00
 Harris functional with IExCor=  402 and IRadAn=       1 diagonalized for initial guess.
 HarFok:  IExCor=  402 AccDes= 0.00D+00 IRadAn=         1 IDoV= 1 UseB2=F ITyADJ=14
 ICtDFT=  3500011 ScaDFX=  1.000000  1.000000  1.000000  1.000000
 FoFCou: FMM=F IPFlag=           0 FMFlag=      100000 FMFlg1=           0
         NFxFlg=           0 DoJE=T BraDBF=F KetDBF=T FulRan=T
         wScrn=  0.000000 ICntrl=     500 IOpCl=  0 I1Cent=   200000004 NGrid=           0
         NMat0=    1 NMatS0=      1 NMatT0=    0 NMatD0=    1 NMtDS0=    0 NMtDT0=    0
 Petite list used in FoFCou.
 Initial guess orbital symmetries:
       Occupied  (BU) (AG) (BU) (AG) (BU) (AG) (BU) (AG) (BU) (AG)
                 (BU) (AG) (AG) (BU) (AG) (BU) (AG) (BU) (AG) (BU)
                 (AG) (BU) (AG) (BU) (AG) (BU) (BU) (AG) (AG) (BU)
                 (BU) (AG) (AG) (BU) (AG) (BU) (AG) (AU) (BG) (AU)
                 (BG) (AU) (BG)
       Virtual   (AU) (BG) (AU) (BG) (AU) (BG) (BU) (AG) (BU) (AG)
                 (BU) (AG) (BU) (BU) (AG) (BU) (AG) (BU) (AG) (BU)
                 (AG) (BU) (AG) (BU) (AG) (AG) (BU) (BU) (AG) (BU)
                 (AG)
 The electronic state of the initial guess is 1-AG.
 Keep R1 ints in memory in symmetry-blocked form, NReq=5066314.
 Requested convergence on RMS density matrix=1.00D-08 within 128 cycles.
 Requested convergence on MAX density matrix=1.00D-06.
 Requested convergence on             energy=1.00D-06.
 No special actions if energy rises.
 Integral accuracy reduced to 1.0D-05 until final iterations.
 Initial convergence to 1.0D-05 achieved.  Increase integral accuracy.
 SCF Done:  E(RB3LYP) =  -459.902413445     A.U. after   13 cycles
            NFock= 13  Conv=0.85D-08     -V/T= 2.0167

 **********************************************************************

            Population analysis using the SCF density.

 **********************************************************************

 Orbital symmetries:
       Occupied  (BU) (AG) (BU) (AG) (BU) (AG) (BU) (AG) (BU) (AG)
                 (BU) (AG) (AG) (BU) (AG) (BU) (AG) (BU) (AG) (BU)
                 (BU) (AG) (AG) (BU) (AG) (BU) (BU) (AG) (AG) (BU)
                 (AG) (BU) (BU) (AG) (AG) (BU) (AU) (AG) (BG) (AU)
                 (BG) (AU) (BG)
       Virtual   (AU) (BG) (AU) (BG) (AU) (BG) (BU) (AG) (BU) (AG)
                 (BU) (AG) (BU) (BU) (AG) (AG) (BU) (BU) (AG) (BU)
                 (AG) (AG) (BU) (BU) (AG) (AG) (BU) (BU) (AG) (BU)
                 (AG)
 The electronic state is 1-AG.
 Alpha  occ. eigenvalues --  -10.00827 -10.00827 -10.00756 -10.00737 -10.00722
 Alpha  occ. eigenvalues --  -10.00667 -10.00642 -10.00625 -10.00567 -10.00567
 Alpha  occ. eigenvalues --   -9.99161  -9.99161  -0.77884  -0.76684  -0.74790
 Alpha  occ. eigenvalues --   -0.72244  -0.69127  -0.65672  -0.59034  -0.55049
 Alpha  occ. eigenvalues --   -0.52502  -0.51793  -0.51161  -0.50524  -0.44117
 Alpha  occ. eigenvalues --   -0.42918  -0.42010  -0.40407  -0.38143  -0.37215
 Alpha  occ. eigenvalues --   -0.34696  -0.34664  -0.32675  -0.32604  -0.31434
 Alpha  occ. eigenvalues --   -0.30363  -0.29772  -0.29367  -0.28108  -0.25430
 Alpha  occ. eigenvalues --   -0.21783  -0.17284  -0.12368
 Alpha virt. eigenvalues --    0.00598   0.06234   0.11882   0.16853   0.20706
 Alpha virt. eigenvalues --    0.23128   0.31142   0.34090   0.37581   0.40310
 Alpha virt. eigenvalues --    0.40908   0.42032   0.42301   0.42814   0.42819
 Alpha virt. eigenvalues --    0.43131   0.43203   0.43364   0.43863   0.52632
 Alpha virt. eigenvalues --    0.53078   0.56599   0.58568   0.62209   0.63554
 Alpha virt. eigenvalues --    0.66799   0.68355   0.70524   0.73845   0.76457
 Alpha virt. eigenvalues --    0.77705
          Condensed to atoms (all electrons):
               1          2          3          4          5          6
     1  C    4.856342   0.579597  -0.027597   0.000686  -0.000006   0.000000
     2  C    0.579597   4.790049   0.426219  -0.026673   0.000812  -0.000006
     3  C   -0.027597   0.426219   4.818679   0.558296  -0.026968   0.000695
     4  C    0.000686  -0.026673   0.558296   4.809221   0.436889  -0.026932
     5  C   -0.000006   0.000812  -0.026968   0.436889   4.813452   0.553168
     6  C    0.000000  -0.000006   0.000695  -0.026932   0.553168   4.811667
     7  C    0.000000   0.000000  -0.000006   0.000815  -0.026992   0.439101
     8  C    0.000000   0.000000   0.000000  -0.000006   0.000699  -0.026992
     9  C    0.000000   0.000000   0.000000   0.000000  -0.000006   0.000815
    10  C    0.000000   0.000000   0.000000   0.000000   0.000000  -0.000006
    11  C    0.000000   0.000000   0.000000   0.000000   0.000000   0.000000
    12  C    0.000000   0.000000   0.000000   0.000000   0.000000   0.000000
    13  H    0.386162  -0.024409  -0.004211   0.000025  -0.000001   0.000000
    14  H    0.388066  -0.023832   0.001413  -0.000019   0.000000   0.000000
    15  H   -0.026788   0.385306  -0.025313  -0.003232   0.000003   0.000000
    16  H   -0.003079  -0.024620   0.384228  -0.026615  -0.004162   0.000024
    17  H    0.000027  -0.004220  -0.026731   0.384331  -0.024960  -0.003283
    18  H    0.000000   0.000004  -0.003260  -0.024888   0.384352  -0.026603
    19  H    0.000000  -0.000001   0.000025  -0.004172  -0.026629   0.384369
    20  H    0.000000   0.000000   0.000000   0.000005  -0.003293  -0.024961
    21  H    0.000000   0.000000   0.000000  -0.000001   0.000024  -0.004162
    22  H    0.000000   0.000000   0.000000   0.000000   0.000000   0.000005
    23  H    0.000000   0.000000   0.000000   0.000000   0.000000  -0.000001
    24  H    0.000000   0.000000   0.000000   0.000000   0.000000   0.000000
    25  H    0.000000   0.000000   0.000000   0.000000   0.000000   0.000000
    26  H    0.000000   0.000000   0.000000   0.000000   0.000000   0.000000
               7          8          9         10         11         12
     1  C    0.000000   0.000000   0.000000   0.000000   0.000000   0.000000
     2  C    0.000000   0.000000   0.000000   0.000000   0.000000   0.000000
     3  C   -0.000006   0.000000   0.000000   0.000000   0.000000   0.000000
     4  C    0.000815  -0.000006   0.000000   0.000000   0.000000   0.000000
     5  C   -0.026992   0.000699  -0.000006   0.000000   0.000000   0.000000
     6  C    0.439101  -0.026992   0.000815  -0.000006   0.000000   0.000000
     7  C    4.811667   0.553168  -0.026932   0.000695  -0.000006   0.000000
     8  C    0.553168   4.813452   0.436889  -0.026968   0.000812  -0.000006
     9  C   -0.026932   0.436889   4.809221   0.558296  -0.026673   0.000686
    10  C    0.000695  -0.026968   0.558296   4.818679   0.426219  -0.027597
    11  C   -0.000006   0.000812  -0.026673   0.426219   4.790049   0.579597
    12  C    0.000000  -0.000006   0.000686  -0.027597   0.579597   4.856342
    13  H    0.000000   0.000000   0.000000   0.000000   0.000000   0.000000
    14  H    0.000000   0.000000   0.000000   0.000000   0.000000   0.000000
    15  H    0.000000   0.000000   0.000000   0.000000   0.000000   0.000000
    16  H   -0.000001   0.000000   0.000000   0.000000   0.000000   0.000000
    17  H    0.000005   0.000000   0.000000   0.000000   0.000000   0.000000
    18  H   -0.004162   0.000024  -0.000001   0.000000   0.000000   0.000000
    19  H   -0.024961  -0.003293   0.000005   0.000000   0.000000   0.000000
    20  H    0.384369  -0.026629  -0.004172   0.000025  -0.000001   0.000000
    21  H   -0.026603   0.384352  -0.024888  -0.003260   0.000004   0.000000
    22  H   -0.003283  -0.024960   0.384331  -0.026731  -0.004220   0.000027
    23  H    0.000024  -0.004162  -0.026615   0.384228  -0.024620  -0.003079
    24  H    0.000000   0.000003  -0.003232  -0.025313   0.385306  -0.026788
    25  H    0.000000   0.000000  -0.000019   0.001413  -0.023832   0.388066
    26  H    0.000000  -0.000001   0.000025  -0.004211  -0.024409   0.386162
              13         14         15         16         17         18
     1  C    0.386162   0.388066  -0.026788  -0.003079   0.000027   0.000000
     2  C   -0.024409  -0.023832   0.385306  -0.024620  -0.004220   0.000004
     3  C   -0.004211   0.001413  -0.025313   0.384228  -0.026731  -0.003260
     4  C    0.000025  -0.000019  -0.003232  -0.026615   0.384331  -0.024888
     5  C   -0.000001   0.000000   0.000003  -0.004162  -0.024960   0.384352
     6  C    0.000000   0.000000   0.000000   0.000024  -0.003283  -0.026603
     7  C    0.000000   0.000000   0.000000  -0.000001   0.000005  -0.004162
     8  C    0.000000   0.000000   0.000000   0.000000   0.000000   0.000024
     9  C    0.000000   0.000000   0.000000   0.000000   0.000000  -0.000001
    10  C    0.000000   0.000000   0.000000   0.000000   0.000000   0.000000
    11  C    0.000000   0.000000   0.000000   0.000000   0.000000   0.000000
    12  C    0.000000   0.000000   0.000000   0.000000   0.000000   0.000000
    13  H    0.586658  -0.023569   0.002005   0.000954   0.000001   0.000000
    14  H   -0.023569   0.584177  -0.004629   0.000000  -0.000001   0.000000
    15  H    0.002005  -0.004629   0.592551   0.001554   0.001015   0.000000
    16  H    0.000954   0.000000   0.001554   0.592404   0.001971   0.000975
    17  H    0.000001  -0.000001   0.001015   0.001971   0.592813   0.001580
    18  H    0.000000   0.000000   0.000000   0.000975   0.001580   0.592543
    19  H    0.000000   0.000000   0.000000   0.000001   0.000984   0.001959
    20  H    0.000000   0.000000   0.000000   0.000000   0.000000   0.000981
    21  H    0.000000   0.000000   0.000000   0.000000   0.000000   0.000001
    22  H    0.000000   0.000000   0.000000   0.000000   0.000000   0.000000
    23  H    0.000000   0.000000   0.000000   0.000000   0.000000   0.000000
    24  H    0.000000   0.000000   0.000000   0.000000   0.000000   0.000000
    25  H    0.000000   0.000000   0.000000   0.000000   0.000000   0.000000
    26  H    0.000000   0.000000   0.000000   0.000000   0.000000   0.000000
              19         20         21         22         23         24
     1  C    0.000000   0.000000   0.000000   0.000000   0.000000   0.000000
     2  C   -0.000001   0.000000   0.000000   0.000000   0.000000   0.000000
     3  C    0.000025   0.000000   0.000000   0.000000   0.000000   0.000000
     4  C   -0.004172   0.000005  -0.000001   0.000000   0.000000   0.000000
     5  C   -0.026629  -0.003293   0.000024   0.000000   0.000000   0.000000
     6  C    0.384369  -0.024961  -0.004162   0.000005  -0.000001   0.000000
     7  C   -0.024961   0.384369  -0.026603  -0.003283   0.000024   0.000000
     8  C   -0.003293  -0.026629   0.384352  -0.024960  -0.004162   0.000003
     9  C    0.000005  -0.004172  -0.024888   0.384331  -0.026615  -0.003232
    10  C    0.000000   0.000025  -0.003260  -0.026731   0.384228  -0.025313
    11  C    0.000000  -0.000001   0.000004  -0.004220  -0.024620   0.385306
    12  C    0.000000   0.000000   0.000000   0.000027  -0.003079  -0.026788
    13  H    0.000000   0.000000   0.000000   0.000000   0.000000   0.000000
    14  H    0.000000   0.000000   0.000000   0.000000   0.000000   0.000000
    15  H    0.000000   0.000000   0.000000   0.000000   0.000000   0.000000
    16  H    0.000001   0.000000   0.000000   0.000000   0.000000   0.000000
    17  H    0.000984   0.000000   0.000000   0.000000   0.000000   0.000000
    18  H    0.001959   0.000981   0.000001   0.000000   0.000000   0.000000
    19  H    0.592671   0.001587   0.000981   0.000000   0.000000   0.000000
    20  H    0.001587   0.592671   0.001959   0.000984   0.000001   0.000000
    21  H    0.000981   0.001959   0.592543   0.001580   0.000975   0.000000
    22  H    0.000000   0.000984   0.001580   0.592813   0.001971   0.001015
    23  H    0.000000   0.000001   0.000975   0.001971   0.592404   0.001554
    24  H    0.000000   0.000000   0.000000   0.001015   0.001554   0.592551
    25  H    0.000000   0.000000   0.000000  -0.000001   0.000000  -0.004629
    26  H    0.000000   0.000000   0.000000   0.000001   0.000954   0.002005
              25         26
     1  C    0.000000   0.000000
     2  C    0.000000   0.000000
     3  C    0.000000   0.000000
     4  C    0.000000   0.000000
     5  C    0.000000   0.000000
     6  C    0.000000   0.000000
     7  C    0.000000   0.000000
     8  C    0.000000  -0.000001
     9  C   -0.000019   0.000025
    10  C    0.001413  -0.004211
    11  C   -0.023832  -0.024409
    12  C    0.388066   0.386162
    13  H    0.000000   0.000000
    14  H    0.000000   0.000000
    15  H    0.000000   0.000000
    16  H    0.000000   0.000000
    17  H    0.000000   0.000000
    18  H    0.000000   0.000000
    19  H    0.000000   0.000000
    20  H    0.000000   0.000000
    21  H    0.000000   0.000000
    22  H   -0.000001   0.000001
    23  H    0.000000   0.000954
    24  H   -0.004629   0.002005
    25  H    0.584177  -0.023569
    26  H   -0.023569   0.586658
 Mulliken charges:
               1
     1  C   -0.153410
     2  C   -0.078226
     3  C   -0.075467
     4  C   -0.077729
     5  C   -0.076382
     6  C   -0.076898
     7  C   -0.076898
     8  C   -0.076382
     9  C   -0.077729
    10  C   -0.075467
    11  C   -0.078226
    12  C   -0.153410
    13  H    0.076384
    14  H    0.078393
    15  H    0.077527
    16  H    0.076365
    17  H    0.076470
    18  H    0.076496
    19  H    0.076476
    20  H    0.076476
    21  H    0.076496
    22  H    0.076470
    23  H    0.076365
    24  H    0.077527
    25  H    0.078393
    26  H    0.076384
 Sum of Mulliken charges =   0.00000
 Mulliken charges with hydrogens summed into heavy atoms:
               1
     1  C    0.001368
     2  C   -0.000698
     3  C    0.000898
     4  C   -0.001260
     5  C    0.000114
     6  C   -0.000422
     7  C   -0.000422
     8  C    0.000114
     9  C   -0.001260
    10  C    0.000898
    11  C   -0.000698
    12  C    0.001368
 Electronic spatial extent (au):  <R**2>=           6276.5775
 Charge=              0.0000 electrons
 Dipole moment (field-independent basis, Debye):
    X=              0.0000    Y=              0.0000    Z=              0.0000  Tot=              0.0000
 Quadrupole moment (field-independent basis, Debye-Ang):
   XX=            -61.6628   YY=            -62.3634   ZZ=            -72.1139
   XY=             -0.1933   XZ=              0.0000   YZ=              0.0000
 Traceless Quadrupole moment (field-independent basis, Debye-Ang):
   XX=              3.7172   YY=              3.0166   ZZ=             -6.7338
   XY=             -0.1933   XZ=              0.0000   YZ=              0.0000
 Octapole moment (field-independent basis, Debye-Ang**2):
  XXX=              0.0000  YYY=              0.0000  ZZZ=              0.0000  XYY=              0.0000
  XXY=              0.0000  XXZ=              0.0000  XZZ=              0.0000  YZZ=              0.0000
  YYZ=              0.0000  XYZ=              0.0000
 Hexadecapole moment (field-independent basis, Debye-Ang**3):
 XXXX=           -206.3995 YYYY=          -7372.4904 ZZZZ=            -58.5055 XXXY=           -228.9991
 XXXZ=              0.0000 YYYX=           -211.9153 YYYZ=              0.0000 ZZZX=              0.0000
 ZZZY=              0.0000 XXYY=          -1253.8616 XXZZ=            -50.8300 YYZZ=          -1427.5498
 XXYZ=              0.0000 YYXZ=              0.0000 ZZXY=            -87.1976
 N-N= 5.273425302914D+02 E-N=-2.118720144991D+03  KE= 4.523364023080D+02
 Symmetry AG   KE= 2.202036296397D+02
 Symmetry BG   KE= 7.759774565335D+00
 Symmetry AU   KE= 7.347210435039D+00
 Symmetry BU   KE= 2.170257876679D+02
 Calling FoFJK, ICntrl=      2127 FMM=F ISym2X=1 I1Cent= 0 IOpClX= 0 NMat=1 NMatS=1 NMatT=0.
 ***** Axes restored to original set *****
 -------------------------------------------------------------------
 Center     Atomic                   Forces (Hartrees/Bohr)
 Number     Number              X              Y              Z
 -------------------------------------------------------------------
      1        6           0.000003152    0.000000068    0.000000236
      2        6           0.000029200   -0.000007618    0.000011682
      3        6          -0.000032174    0.000030519   -0.000038338
      4        6           0.000029738   -0.000030898    0.000038531
      5        6          -0.000030026    0.000031903   -0.000039716
      6        6           0.000028513   -0.000032073    0.000039761
      7        6          -0.000028513    0.000032073   -0.000039761
      8        6           0.000030026   -0.000031903    0.000039716
      9        6          -0.000029738    0.000030898   -0.000038531
     10        6           0.000032174   -0.000030519    0.000038338
     11        6          -0.000029200    0.000007618   -0.000011682
     12        6          -0.000003152   -0.000000068   -0.000000236
     13        1          -0.000004523    0.000003457   -0.000004431
     14        1          -0.000010646    0.000000918   -0.000002118
     15        1          -0.000017164   -0.000010228    0.000010060
     16        1          -0.000001607   -0.000001259    0.000001289
     17        1           0.000001397    0.000000497   -0.000000433
     18        1          -0.000002057   -0.000000992    0.000000937
     19        1           0.000002492    0.000001247   -0.000001187
     20        1          -0.000002492   -0.000001247    0.000001187
     21        1           0.000002057    0.000000992   -0.000000937
     22        1          -0.000001397   -0.000000497    0.000000433
     23        1           0.000001607    0.000001259   -0.000001289
     24        1           0.000017164    0.000010228   -0.000010060
     25        1           0.000010646   -0.000000918    0.000002118
     26        1           0.000004523   -0.000003457    0.000004431
 -------------------------------------------------------------------
 Cartesian Forces:  Max     0.000039761 RMS     0.000019891

 GradGradGradGradGradGradGradGradGradGradGradGradGradGradGradGradGradGrad
 Berny optimization.
 FormGI is forming the generalized inverse of G from B-inverse, IUseBI=4.
 GSVD:  received Info=                   1 from GESDD.
 Internal  Forces:  Max     0.000054332 RMS     0.000013360
 Search for a local minimum.
 Step number   1 out of a maximum of  115
 All quantities printed in internal units (Hartrees-Bohrs-Radians)
 Mixed Optimization -- En-DIIS/RFO-DIIS
 Second derivative matrix not updated -- first step.
 ITU=  0
     Eigenvalues ---    0.01080   0.01080   0.01220   0.01220   0.01249
     Eigenvalues ---    0.01836   0.01836   0.01878   0.01878   0.01891
     Eigenvalues ---    0.01891   0.01903   0.01903   0.01952   0.01952
     Eigenvalues ---    0.02507   0.02507   0.02555   0.02555   0.02769
     Eigenvalues ---    0.02769   0.02769   0.02769   0.16000   0.16000
     Eigenvalues ---    0.16000   0.16000   0.16000   0.16000   0.16000
     Eigenvalues ---    0.16000   0.16000   0.16000   0.16000   0.16000
     Eigenvalues ---    0.16000   0.16000   0.22000   0.22000   0.22000
     Eigenvalues ---    0.22000   0.22000   0.22000   0.22000   0.22000
     Eigenvalues ---    0.22000   0.22000   0.33638   0.33638   0.33652
     Eigenvalues ---    0.33652   0.33661   0.33661   0.33664   0.33664
     Eigenvalues ---    0.33669   0.33669   0.34033   0.34033   0.34105
     Eigenvalues ---    0.34105   0.35000   0.35000   0.36266   0.36266
     Eigenvalues ---    0.36532   0.51285   0.51285   0.51997   0.51997
     Eigenvalues ---    0.55318   0.55318
 RFO step:  Lambda=-8.83100556D-08 EMin= 1.07985428D-02
 Linear search not attempted -- first point.
 Iteration  1 RMS(Cart)=  0.00029507 RMS(Int)=  0.00000002
 Iteration  2 RMS(Cart)=  0.00000005 RMS(Int)=  0.00000000
 ClnCor:  largest displacement from symmetrization is 5.47D-08 for atom    26.
 Variable       Old X    -DE/DX   Delta X   Delta X   Delta X     New X
                                 (Linear)    (Quad)   (Total)
    R1        2.54850   0.00000   0.00000   0.00000   0.00000   2.54850
    R2        2.07274  -0.00001   0.00000  -0.00002  -0.00002   2.07272
    R3        2.07153   0.00001   0.00000   0.00003   0.00003   2.07156
    R4        2.78975   0.00000   0.00000   0.00000   0.00000   2.78975
    R5        2.07945   0.00000   0.00000  -0.00001  -0.00001   2.07943
    R6        2.57902  -0.00001   0.00000  -0.00001  -0.00001   2.57901
    R7        2.07893   0.00000   0.00000   0.00000   0.00000   2.07893
    R8        2.76967   0.00000   0.00000   0.00000   0.00000   2.76967
    R9        2.07921   0.00000   0.00000   0.00000   0.00000   2.07921
   R10        2.58590  -0.00001   0.00000  -0.00001  -0.00001   2.58589
   R11        2.07901   0.00000   0.00000   0.00000   0.00000   2.07901
   R12        2.76558   0.00000   0.00000   0.00001   0.00001   2.76558
   R13        2.07907   0.00000   0.00000   0.00000   0.00000   2.07907
   R14        2.58590  -0.00001   0.00000  -0.00001  -0.00001   2.58589
   R15        2.07907   0.00000   0.00000   0.00000   0.00000   2.07907
   R16        2.76967   0.00000   0.00000   0.00000   0.00000   2.76967
   R17        2.07901   0.00000   0.00000   0.00000   0.00000   2.07901
   R18        2.57902  -0.00001   0.00000  -0.00001  -0.00001   2.57901
   R19        2.07921   0.00000   0.00000   0.00000   0.00000   2.07921
   R20        2.78975   0.00000   0.00000   0.00000   0.00000   2.78975
   R21        2.07893   0.00000   0.00000   0.00000   0.00000   2.07893
   R22        2.54850   0.00000   0.00000   0.00000   0.00000   2.54850
   R23        2.07945   0.00000   0.00000  -0.00001  -0.00001   2.07943
   R24        2.07153   0.00001   0.00000   0.00003   0.00003   2.07156
   R25        2.07274  -0.00001   0.00000  -0.00002  -0.00002   2.07272
    A1        2.12356   0.00000   0.00000   0.00001   0.00001   2.12358
    A2        2.12633   0.00000   0.00000  -0.00002  -0.00002   2.12631
    A3        2.03329   0.00000   0.00000   0.00001   0.00001   2.03329
    A4        2.16519   0.00001   0.00000   0.00003   0.00003   2.16522
    A5        2.09044  -0.00003   0.00000  -0.00016  -0.00016   2.09028
    A6        2.02756   0.00002   0.00000   0.00013   0.00013   2.02769
    A7        2.16046   0.00005   0.00000   0.00025   0.00025   2.16071
    A8        2.03764  -0.00003   0.00000  -0.00014  -0.00014   2.03750
    A9        2.08509  -0.00002   0.00000  -0.00011  -0.00011   2.08498
   A10        2.16381   0.00001   0.00000   0.00005   0.00005   2.16385
   A11        2.08123   0.00000   0.00000  -0.00001  -0.00001   2.08122
   A12        2.03815  -0.00001   0.00000  -0.00003  -0.00003   2.03811
   A13        2.16229   0.00004   0.00000   0.00018   0.00018   2.16247
   A14        2.03972  -0.00002   0.00000  -0.00011  -0.00011   2.03961
   A15        2.08118  -0.00002   0.00000  -0.00008  -0.00008   2.08110
   A16        2.16298   0.00002   0.00000   0.00011   0.00011   2.16310
   A17        2.08040  -0.00001   0.00000  -0.00004  -0.00004   2.08036
   A18        2.03980  -0.00002   0.00000  -0.00007  -0.00007   2.03972
   A19        2.16298   0.00002   0.00000   0.00011   0.00011   2.16310
   A20        2.03980  -0.00002   0.00000  -0.00007  -0.00007   2.03972
   A21        2.08040  -0.00001   0.00000  -0.00004  -0.00004   2.08036
   A22        2.16229   0.00004   0.00000   0.00018   0.00018   2.16247
   A23        2.08118  -0.00002   0.00000  -0.00008  -0.00008   2.08110
   A24        2.03972  -0.00002   0.00000  -0.00011  -0.00011   2.03961
   A25        2.16381   0.00001   0.00000   0.00005   0.00005   2.16385
   A26        2.03815  -0.00001   0.00000  -0.00003  -0.00003   2.03811
   A27        2.08123   0.00000   0.00000  -0.00001  -0.00001   2.08122
   A28        2.16046   0.00005   0.00000   0.00025   0.00025   2.16071
   A29        2.08509  -0.00002   0.00000  -0.00011  -0.00011   2.08498
   A30        2.03764  -0.00003   0.00000  -0.00014  -0.00014   2.03750
   A31        2.16519   0.00001   0.00000   0.00003   0.00003   2.16522
   A32        2.02756   0.00002   0.00000   0.00013   0.00013   2.02769
   A33        2.09044  -0.00003   0.00000  -0.00016  -0.00016   2.09028
   A34        2.12633   0.00000   0.00000  -0.00002  -0.00002   2.12631
   A35        2.12356   0.00000   0.00000   0.00001   0.00001   2.12358
   A36        2.03329   0.00000   0.00000   0.00001   0.00001   2.03329
    D1        0.00000   0.00000   0.00000   0.00000   0.00000   0.00000
    D2        3.14159   0.00000   0.00000   0.00000   0.00000   3.14159
    D3        3.14159   0.00000   0.00000   0.00000   0.00000   3.14159
    D4        0.00000   0.00000   0.00000   0.00000   0.00000   0.00000
    D5        3.14159   0.00000   0.00000   0.00000   0.00000   3.14159
    D6        0.00000   0.00000   0.00000   0.00000   0.00000   0.00000
    D7        0.00000   0.00000   0.00000   0.00000   0.00000   0.00000
    D8        3.14159   0.00000   0.00000   0.00000   0.00000   3.14159
    D9        3.14159   0.00000   0.00000   0.00000   0.00000   3.14159
   D10        0.00000   0.00000   0.00000   0.00000   0.00000   0.00000
   D11        0.00000   0.00000   0.00000   0.00000   0.00000   0.00000
   D12        3.14159   0.00000   0.00000   0.00000   0.00000   3.14159
   D13        3.14159   0.00000   0.00000   0.00000   0.00000   3.14159
   D14        0.00000   0.00000   0.00000   0.00000   0.00000   0.00000
   D15        0.00000   0.00000   0.00000   0.00000   0.00000   0.00000
   D16       -3.14159   0.00000   0.00000   0.00000   0.00000   3.14159
   D17        3.14159   0.00000   0.00000   0.00000   0.00000   3.14159
   D18        0.00000   0.00000   0.00000   0.00000   0.00000   0.00000
   D19        0.00000   0.00000   0.00000   0.00000   0.00000   0.00000
   D20        3.14159   0.00000   0.00000   0.00000   0.00000   3.14159
   D21       -3.14159   0.00000   0.00000   0.00000   0.00000   3.14159
   D22        0.00000   0.00000   0.00000   0.00000   0.00000   0.00000
   D23        0.00000   0.00000   0.00000   0.00000   0.00000   0.00000
   D24        3.14159   0.00000   0.00000   0.00000   0.00000   3.14159
   D25        3.14159   0.00000   0.00000   0.00000   0.00000   3.14159
   D26        0.00000   0.00000   0.00000   0.00000   0.00000   0.00000
   D27        0.00000   0.00000   0.00000   0.00000   0.00000   0.00000
   D28        3.14159   0.00000   0.00000   0.00000   0.00000  -3.14159
   D29        3.14159   0.00000   0.00000   0.00000   0.00000   3.14159
   D30        0.00000   0.00000   0.00000   0.00000   0.00000   0.00000
   D31        0.00000   0.00000   0.00000   0.00000   0.00000   0.00000
   D32        3.14159   0.00000   0.00000   0.00000   0.00000   3.14159
   D33        3.14159   0.00000   0.00000   0.00000   0.00000   3.14159
   D34        0.00000   0.00000   0.00000   0.00000   0.00000   0.00000
   D35        0.00000   0.00000   0.00000   0.00000   0.00000   0.00000
   D36        3.14159   0.00000   0.00000   0.00000   0.00000   3.14159
   D37        3.14159   0.00000   0.00000   0.00000   0.00000   3.14159
   D38        0.00000   0.00000   0.00000   0.00000   0.00000   0.00000
   D39        0.00000   0.00000   0.00000   0.00000   0.00000   0.00000
   D40       -3.14159   0.00000   0.00000   0.00000   0.00000  -3.14159
   D41        3.14159   0.00000   0.00000   0.00000   0.00000   3.14159
   D42        0.00000   0.00000   0.00000   0.00000   0.00000   0.00000
   D43        0.00000   0.00000   0.00000   0.00000   0.00000   0.00000
   D44       -3.14159   0.00000   0.00000   0.00000   0.00000   3.14159
         Item               Value     Threshold  Converged?
 Maximum Force            0.000054     0.000015     NO 
 RMS     Force            0.000013     0.000010     NO 
 Maximum Displacement     0.001019     0.000060     NO 
 RMS     Displacement     0.000295     0.000040     NO 
 Predicted change in Energy=-4.415503D-08
 GradGradGradGradGradGradGradGradGradGradGradGradGradGradGradGradGradGrad

                          Input orientation:                          
 ---------------------------------------------------------------------
 Center     Atomic      Atomic             Coordinates (Angstroms)
 Number     Number       Type             X           Y           Z
 ---------------------------------------------------------------------
      1          6           0        1.099372   -0.280587   -0.283542
      2          6           0        1.709729    0.537849   -1.164665
      3          6           0        3.171596    0.729501   -1.239409
      4          6           0        3.783778    1.559284   -2.133411
      5          6           0        5.234553    1.752526   -2.211092
      6          6           0        5.846688    2.584998   -3.108193
      7          6           0        7.295205    2.778542   -3.186447
      8          6           0        7.907340    3.611013   -4.083548
      9          6           0        9.358115    3.804255   -4.161229
     10          6           0        9.970297    4.634039   -5.055231
     11          6           0       11.432164    4.825690   -5.129975
     12          6           0       12.042521    5.644126   -6.011099
     13          1           0        1.668902   -0.866757    0.447960
     14          1           0        0.009415   -0.395300   -0.260249
     15          1           0        1.107451    1.111545   -1.885076
     16          1           0        3.782703    0.160298   -0.523289
     17          1           0        3.169165    2.126879   -2.848030
     18          1           0        5.850469    1.185658   -1.497180
     19          1           0        5.230088    3.151550   -3.821811
     20          1           0        7.911805    2.211989   -2.472829
     21          1           0        7.291424    4.177881   -4.797460
     22          1           0        9.972728    3.236660   -3.446610
     23          1           0        9.359190    5.203242   -5.771351
     24          1           0       12.034442    4.251994   -4.409564
     25          1           0       13.132478    5.758839   -6.034391
     26          1           0       11.472991    6.230296   -6.742600
 ---------------------------------------------------------------------
                    Distance matrix (angstroms):
                    1          2          3          4          5
     1  C    0.000000
     2  C    1.348610   0.000000
     3  C    2.495610   1.476270   0.000000
     4  C    3.743418   2.506687   1.364752   0.000000
     5  C    4.994869   3.872317   2.499308   1.465648   0.000000
     6  C    6.223121   5.008248   3.753844   2.501577   1.368396
     7  C    7.494896   6.348689   4.999368   3.863366   2.500063
     8  C    8.713956   7.508303   6.230531   5.001639   3.755510
     9  C    9.996461   8.840058   7.500945   6.342332   5.001639
    10  C   11.207849  10.007611   8.719419   7.500945   6.230531
    11  C   12.503143  11.341738  10.007611   8.840058   7.508303
    12  C   13.698892  12.503143  11.207849   9.996461   8.713956
    13  H    1.096838   2.138958   2.766466   4.125754   5.161885
    14  H    1.096224   2.140047   3.496186   4.644884   5.976705
    15  H    2.122029   1.100390   2.196255   2.724861   4.189285
    16  H    2.729858   2.202529   1.100124   2.132993   2.737104
    17  H    4.081242   2.736547   2.130806   1.100270   2.193549
    18  H    5.118175   4.204278   2.729632   2.194448   1.100165
    19  H    6.431309   5.126870   4.095426   2.734560   2.133472
    20  H    7.577279   6.555897   5.117488   4.193070   2.728972
    21  H    8.865376   7.589622   6.443915   5.124235   4.099069
    22  H   10.055470   8.987102   7.577136   6.545318   5.116587
    23  H   11.331947  10.074805   8.879143   7.589351   6.449458
    24  H   12.535713  11.442201  10.050268   8.972459   7.570939
    25  H   14.640443  13.470418  12.145175  10.965952   9.646003
    26  H   13.846407  12.603118  11.377918  10.108757   8.916451
                    6          7          8          9         10
     6  C    0.000000
     7  C    1.463484   0.000000
     8  C    2.500063   1.368396   0.000000
     9  C    3.863366   2.501577   1.465648   0.000000
    10  C    4.999368   3.753844   2.499308   1.364752   0.000000
    11  C    6.348689   5.008248   3.872317   2.506687   1.476270
    12  C    7.494896   6.223121   4.994869   3.743418   2.495610
    13  H    6.481876   7.625772   8.916451  10.108757  11.377918
    14  H    7.146097   8.468686   9.646003  10.965952  12.145175
    15  H    5.111501   6.539170   7.570939   8.972459  10.050268
    16  H    4.101333   5.126917   6.449458   7.589351   8.879143
    17  H    2.728862   4.190870   5.116587   6.545318   7.577136
    18  H    2.133900   2.734623   4.099069   5.124235   6.443915
    19  H    1.100194   2.192608   2.728972   4.193070   5.117488
    20  H    2.192608   1.100194   2.133472   2.734560   4.095426
    21  H    2.734623   2.133900   1.100165   2.194448   2.729632
    22  H    4.190870   2.728862   2.193549   1.100270   2.130806
    23  H    5.126917   4.101333   2.737104   2.132993   1.100124
    24  H    6.539170   5.111501   4.189285   2.724861   2.196255
    25  H    8.468686   7.146097   5.976705   4.644884   3.496186
    26  H    7.625772   6.481876   5.161885   4.125754   2.766466
                   11         12         13         14         15
    11  C    0.000000
    12  C    1.348610   0.000000
    13  H   12.603118  13.846407   0.000000
    14  H   13.470418  14.640443   1.864867   0.000000
    15  H   11.442201  12.535713   3.109977   2.473120   0.000000
    16  H   10.074805  11.331947   2.542896   3.823033   3.149017
    17  H    8.987102  10.055470   4.698531   4.800210   2.491757
    18  H    7.589622   8.865376   5.047918   6.176353   4.759431
    19  H    6.555897   7.577279   6.860013   7.247089   4.990862
    20  H    5.126870   6.431309   7.548742   8.610530   6.917779
    21  H    4.204278   5.118175   9.196496   9.722547   7.491723
    22  H    2.736547   4.081242  10.047846  11.073013   9.249197
    23  H    2.202529   2.729858  11.604535  12.212051   9.996815
    24  H    1.100390   2.122029  12.539600  13.543095  11.646227
    25  H    2.140047   1.096224  14.742216  15.602208  13.543095
    26  H    2.138958   1.096838  14.078084  14.742216  12.539600
                   16         17         18         19         20
    16  H    0.000000
    17  H    3.106171   0.000000
    18  H    2.505092   3.146440   0.000000
    19  H    4.682175   2.499121   3.107011   0.000000
    20  H    5.005959   4.758219   2.500870   3.145494   0.000000
    21  H    6.835250   4.999990   4.682051   2.500870   3.107011
    22  H    7.505079   6.919420   4.999990   4.758219   2.499121
    23  H    9.169005   7.505079   6.835250   5.005959   4.682175
    24  H    9.996815   9.249197   7.491723   6.917779   4.990862
    25  H   12.212051  11.073013   9.722547   8.610530   7.247089
    26  H   11.604535  10.047846   9.196496   7.548742   6.860013
                   21         22         23         24         25
    21  H    0.000000
    22  H    3.146440   0.000000
    23  H    2.505092   3.106171   0.000000
    24  H    4.759431   2.491757   3.149017   0.000000
    25  H    6.176353   4.800210   3.823033   2.473120   0.000000
    26  H    5.047918   4.698531   2.542896   3.109977   1.864867
                   26
    26  H    0.000000
 Stoichiometry    C12H14
 Framework group  C2H[SGH(C12H14)]
 Deg. of freedom    25
 Full point group                 C2H     NOp   4
 Largest Abelian subgroup         C2H     NOp   4
 Largest concise Abelian subgroup C2      NOp   2
                         Standard orientation:                         
 ---------------------------------------------------------------------
 Center     Atomic      Atomic             Coordinates (Angstroms)
 Number     Number       Type             X           Y           Z
 ---------------------------------------------------------------------
      1          6           0        0.083421    6.848938    0.000000
      2          6           0        0.664278    5.631828    0.000000
      3          6           0       -0.083421    4.358911    0.000000
      4          6           0        0.509937    3.129898    0.000000
      5          6           0       -0.228407    1.863812    0.000000
      6          6           0        0.368233    0.632337    0.000000
      7          6           0       -0.368233   -0.632337    0.000000
      8          6           0        0.228407   -1.863812    0.000000
      9          6           0       -0.509937   -3.129898    0.000000
     10          6           0        0.083421   -4.358911    0.000000
     11          6           0       -0.664278   -5.631828    0.000000
     12          6           0       -0.083421   -6.848938    0.000000
     13          1           0       -1.007085    6.966627    0.000000
     14          1           0        0.674982    7.771848    0.000000
     15          1           0        1.761640    5.550250    0.000000
     16          1           0       -1.181265    4.429704    0.000000
     17          1           0        1.608184    3.063223    0.000000
     18          1           0       -1.326649    1.928834    0.000000
     19          1           0        1.466551    0.568119    0.000000
     20          1           0       -1.466551   -0.568119    0.000000
     21          1           0        1.326649   -1.928834    0.000000
     22          1           0       -1.608184   -3.063223    0.000000
     23          1           0        1.181265   -4.429704    0.000000
     24          1           0       -1.761640   -5.550250    0.000000
     25          1           0       -0.674982   -7.771848    0.000000
     26          1           0        1.007085   -6.966627    0.000000
 ---------------------------------------------------------------------
 Rotational constants (GHZ):     12.5801800      0.1670123      0.1648241
 Standard basis: STO-3G (5D, 7F)
 There are    31 symmetry adapted cartesian basis functions of AG  symmetry.
 There are     6 symmetry adapted cartesian basis functions of BG  symmetry.
 There are     6 symmetry adapted cartesian basis functions of AU  symmetry.
 There are    31 symmetry adapted cartesian basis functions of BU  symmetry.
 There are    31 symmetry adapted basis functions of AG  symmetry.
 There are     6 symmetry adapted basis functions of BG  symmetry.
 There are     6 symmetry adapted basis functions of AU  symmetry.
 There are    31 symmetry adapted basis functions of BU  symmetry.
    74 basis functions,   222 primitive gaussians,    74 cartesian basis functions
    43 alpha electrons       43 beta electrons
       nuclear repulsion energy       527.3338479800 Hartrees.
 NAtoms=   26 NActive=   26 NUniq=   13 SFac= 4.00D+00 NAtFMM=   60 NAOKFM=F Big=F
 Integral buffers will be    131072 words long.
 Raffenetti 2 integral format.
 Two-electron integral symmetry is turned on.
 One-electron integrals computed using PRISM.
 NBasis=    74 RedAO= T EigKep=  1.94D-01  NBF=    31     6     6    31
 NBsUse=    74 1.00D-06 EigRej= -1.00D+00 NBFU=    31     6     6    31
 Initial guess from the checkpoint file:  "/data/trash/Gau-2806.chk"
 B after Tr=     0.000000    0.000000    0.000000
         Rot=    0.999965    0.000000    0.000000   -0.008320 Ang=  -0.95 deg.
 Initial guess orbital symmetries:
       Occupied  (BU) (AG) (BU) (AG) (BU) (AG) (BU) (AG) (BU) (AG)
                 (BU) (AG) (AG) (BU) (AG) (BU) (AG) (BU) (AG) (BU)
                 (BU) (AG) (AG) (BU) (AG) (BU) (BU) (AG) (AG) (BU)
                 (AG) (BU) (BU) (AG) (AG) (BU) (AU) (AG) (BG) (AU)
                 (BG) (AU) (BG)
       Virtual   (AG) (AG) (AG) (AG) (AG) (AG) (AG) (AG) (AG) (AG)
                 (AG) (AG) (BG) (BG) (BG) (AU) (AU) (AU) (BU) (BU)
                 (BU) (BU) (BU) (BU) (BU) (BU) (BU) (BU) (BU) (BU)
                 (BU)
 Keep R1 ints in memory in symmetry-blocked form, NReq=5066314.
 Requested convergence on RMS density matrix=1.00D-08 within 128 cycles.
 Requested convergence on MAX density matrix=1.00D-06.
 Requested convergence on             energy=1.00D-06.
 No special actions if energy rises.
 SCF Done:  E(RB3LYP) =  -459.902409580     A.U. after    6 cycles
            NFock=  6  Conv=0.40D-08     -V/T= 2.0167
 Calling FoFJK, ICntrl=      2127 FMM=F ISym2X=1 I1Cent= 0 IOpClX= 0 NMat=1 NMatS=1 NMatT=0.
 ***** Axes restored to original set *****
 -------------------------------------------------------------------
 Center     Atomic                   Forces (Hartrees/Bohr)
 Number     Number              X              Y              Z
 -------------------------------------------------------------------
      1        6          -0.000001654    0.000003522   -0.000004219
      2        6           0.000009060    0.000001822   -0.000001193
      3        6          -0.000001880    0.000004248   -0.000005077
      4        6          -0.000004098   -0.000000469    0.000000131
      5        6           0.000005140    0.000001623   -0.000001355
      6        6          -0.000006130   -0.000000959    0.000000492
      7        6           0.000006130    0.000000959   -0.000000492
      8        6          -0.000005140   -0.000001623    0.000001355
      9        6           0.000004098    0.000000469   -0.000000131
     10        6           0.000001880   -0.000004248    0.000005077
     11        6          -0.000009060   -0.000001822    0.000001193
     12        6           0.000001654   -0.000003522    0.000004219
     13        1          -0.000002860   -0.000004181    0.000004527
     14        1           0.000004267    0.000001864   -0.000001720
     15        1          -0.000000667    0.000003144   -0.000003686
     16        1          -0.000000770   -0.000004145    0.000004694
     17        1           0.000000566    0.000004296   -0.000004888
     18        1          -0.000000419   -0.000003725    0.000004246
     19        1           0.000000432    0.000003783   -0.000004311
     20        1          -0.000000432   -0.000003783    0.000004311
     21        1           0.000000419    0.000003725   -0.000004246
     22        1          -0.000000566   -0.000004296    0.000004888
     23        1           0.000000770    0.000004145   -0.000004694
     24        1           0.000000667   -0.000003144    0.000003686
     25        1          -0.000004267   -0.000001864    0.000001720
     26        1           0.000002860    0.000004181   -0.000004527
 -------------------------------------------------------------------
 Cartesian Forces:  Max     0.000009060 RMS     0.000003567

 GradGradGradGradGradGradGradGradGradGradGradGradGradGradGradGradGradGrad
 Berny optimization.
 Using GEDIIS/GDIIS optimizer.
 FormGI is forming the generalized inverse of G from B-inverse, IUseBI=4.
 GSVD:  received Info=                   1 from GESDD.
 Internal  Forces:  Max     0.000012754 RMS     0.000004501
 Search for a local minimum.
 Step number   2 out of a maximum of  115
 All quantities printed in internal units (Hartrees-Bohrs-Radians)
 Mixed Optimization -- En-DIIS/RFO-DIIS
 Swapping is turned off.
 Update second derivatives using D2CorX and points    1    2
 DE=  3.86D-06 DEPred=-4.42D-08 R=-8.75D+01
 Trust test=-8.75D+01 RLast= 6.51D-04 DXMaxT set to 1.50D-01
 ITU= -1  0
     Eigenvalues ---    0.01080   0.01080   0.01220   0.01220   0.01249
     Eigenvalues ---    0.01836   0.01836   0.01878   0.01878   0.01891
     Eigenvalues ---    0.01891   0.01903   0.01903   0.01952   0.01952
     Eigenvalues ---    0.02507   0.02507   0.02555   0.02555   0.02769
     Eigenvalues ---    0.02769   0.02769   0.02769   0.14609   0.16000
     Eigenvalues ---    0.16000   0.16000   0.16000   0.16000   0.16000
     Eigenvalues ---    0.16000   0.16000   0.16000   0.16000   0.16000
     Eigenvalues ---    0.16000   0.16428   0.21626   0.22000   0.22000
     Eigenvalues ---    0.22000   0.22000   0.22000   0.22000   0.22000
     Eigenvalues ---    0.22000   0.25285   0.33630   0.33638   0.33652
     Eigenvalues ---    0.33654   0.33661   0.33662   0.33664   0.33666
     Eigenvalues ---    0.33669   0.33784   0.34033   0.34061   0.34105
     Eigenvalues ---    0.34359   0.35000   0.35700   0.36266   0.36450
     Eigenvalues ---    0.38388   0.51285   0.51367   0.51997   0.52006
     Eigenvalues ---    0.55318   0.55319
 En-DIIS/RFO-DIIS IScMMF=        0 using points:     2    1
 RFO step:  Lambda= 0.00000000D+00.
 DidBck=F Rises=F RFO-DIIS coefs:    0.86485    0.13515
 Iteration  1 RMS(Cart)=  0.00005293 RMS(Int)=  0.00000001
 Iteration  2 RMS(Cart)=  0.00000001 RMS(Int)=  0.00000001
 ClnCor:  largest displacement from symmetrization is 4.88D-08 for atom    22.
 Variable       Old X    -DE/DX   Delta X   Delta X   Delta X     New X
                                 (Linear)    (Quad)   (Total)
    R1        2.54850   0.00000   0.00000   0.00000   0.00000   2.54851
    R2        2.07272   0.00001   0.00000   0.00001   0.00001   2.07274
    R3        2.07156  -0.00001   0.00000  -0.00001  -0.00001   2.07155
    R4        2.78975  -0.00001   0.00000  -0.00003  -0.00003   2.78971
    R5        2.07943   0.00000   0.00000   0.00001   0.00001   2.07944
    R6        2.57901  -0.00001   0.00000  -0.00001  -0.00001   2.57900
    R7        2.07893   0.00001   0.00000   0.00002   0.00002   2.07895
    R8        2.76967  -0.00001   0.00000  -0.00002  -0.00002   2.76965
    R9        2.07921   0.00000   0.00000   0.00001   0.00001   2.07922
   R10        2.58589  -0.00001   0.00000  -0.00001  -0.00001   2.58588
   R11        2.07901   0.00000   0.00000   0.00001   0.00001   2.07902
   R12        2.76558  -0.00001   0.00000  -0.00002  -0.00002   2.76556
   R13        2.07907   0.00000   0.00000   0.00001   0.00001   2.07908
   R14        2.58589  -0.00001   0.00000  -0.00001  -0.00001   2.58588
   R15        2.07907   0.00000   0.00000   0.00001   0.00001   2.07908
   R16        2.76967  -0.00001   0.00000  -0.00002  -0.00002   2.76965
   R17        2.07901   0.00000   0.00000   0.00001   0.00001   2.07902
   R18        2.57901  -0.00001   0.00000  -0.00001  -0.00001   2.57900
   R19        2.07921   0.00000   0.00000   0.00001   0.00001   2.07922
   R20        2.78975  -0.00001   0.00000  -0.00003  -0.00003   2.78971
   R21        2.07893   0.00001   0.00000   0.00002   0.00002   2.07895
   R22        2.54850   0.00000   0.00000   0.00000   0.00000   2.54851
   R23        2.07943   0.00000   0.00000   0.00001   0.00001   2.07944
   R24        2.07156  -0.00001   0.00000  -0.00001  -0.00001   2.07155
   R25        2.07272   0.00001   0.00000   0.00001   0.00001   2.07274
    A1        2.12358   0.00001   0.00000   0.00004   0.00004   2.12362
    A2        2.12631   0.00000   0.00000  -0.00003  -0.00002   2.12629
    A3        2.03329   0.00000   0.00000  -0.00002  -0.00002   2.03328
    A4        2.16522   0.00000   0.00000   0.00002   0.00001   2.16523
    A5        2.09028   0.00000   0.00002  -0.00003   0.00000   2.09027
    A6        2.02769   0.00000  -0.00002   0.00001  -0.00001   2.02768
    A7        2.16071  -0.00001  -0.00003   0.00002  -0.00002   2.16069
    A8        2.03750   0.00000   0.00002  -0.00003  -0.00001   2.03749
    A9        2.08498   0.00001   0.00001   0.00002   0.00003   2.08501
   A10        2.16385   0.00000  -0.00001  -0.00001  -0.00001   2.16384
   A11        2.08122   0.00001   0.00000   0.00003   0.00003   2.08125
   A12        2.03811   0.00000   0.00000  -0.00002  -0.00002   2.03810
   A13        2.16247  -0.00001  -0.00002   0.00000  -0.00003   2.16245
   A14        2.03961   0.00000   0.00001  -0.00002   0.00000   2.03961
   A15        2.08110   0.00001   0.00001   0.00002   0.00003   2.08113
   A16        2.16310  -0.00001  -0.00002   0.00000  -0.00002   2.16308
   A17        2.08036   0.00001   0.00001   0.00002   0.00003   2.08039
   A18        2.03972   0.00000   0.00001  -0.00002  -0.00001   2.03971
   A19        2.16310  -0.00001  -0.00002   0.00000  -0.00002   2.16308
   A20        2.03972   0.00000   0.00001  -0.00002  -0.00001   2.03971
   A21        2.08036   0.00001   0.00001   0.00002   0.00003   2.08039
   A22        2.16247  -0.00001  -0.00002   0.00000  -0.00003   2.16245
   A23        2.08110   0.00001   0.00001   0.00002   0.00003   2.08113
   A24        2.03961   0.00000   0.00001  -0.00002   0.00000   2.03961
   A25        2.16385   0.00000  -0.00001  -0.00001  -0.00001   2.16384
   A26        2.03811   0.00000   0.00000  -0.00002  -0.00002   2.03810
   A27        2.08122   0.00001   0.00000   0.00003   0.00003   2.08125
   A28        2.16071  -0.00001  -0.00003   0.00002  -0.00002   2.16069
   A29        2.08498   0.00001   0.00001   0.00002   0.00003   2.08501
   A30        2.03750   0.00000   0.00002  -0.00003  -0.00001   2.03749
   A31        2.16522   0.00000   0.00000   0.00002   0.00001   2.16523
   A32        2.02769   0.00000  -0.00002   0.00001  -0.00001   2.02768
   A33        2.09028   0.00000   0.00002  -0.00003   0.00000   2.09027
   A34        2.12631   0.00000   0.00000  -0.00003  -0.00002   2.12629
   A35        2.12358   0.00001   0.00000   0.00004   0.00004   2.12362
   A36        2.03329   0.00000   0.00000  -0.00002  -0.00002   2.03328
    D1        0.00000   0.00000   0.00000   0.00000   0.00000   0.00000
    D2        3.14159   0.00000   0.00000   0.00000   0.00000   3.14159
    D3        3.14159   0.00000   0.00000   0.00000   0.00000  -3.14159
    D4        0.00000   0.00000   0.00000   0.00000   0.00000   0.00000
    D5        3.14159   0.00000   0.00000   0.00000   0.00000  -3.14159
    D6        0.00000   0.00000   0.00000   0.00000   0.00000   0.00000
    D7        0.00000   0.00000   0.00000   0.00000   0.00000   0.00000
    D8        3.14159   0.00000   0.00000   0.00000   0.00000   3.14159
    D9        3.14159   0.00000   0.00000   0.00000   0.00000  -3.14159
   D10        0.00000   0.00000   0.00000   0.00000   0.00000   0.00000
   D11        0.00000   0.00000   0.00000   0.00000   0.00000   0.00000
   D12       -3.14159   0.00000   0.00000   0.00000   0.00000   3.14159
   D13        3.14159   0.00000   0.00000   0.00000   0.00000   3.14159
   D14        0.00000   0.00000   0.00000   0.00000   0.00000   0.00000
   D15        0.00000   0.00000   0.00000   0.00000   0.00000   0.00000
   D16        3.14159   0.00000   0.00000   0.00000   0.00000   3.14159
   D17       -3.14159   0.00000   0.00000   0.00000   0.00000   3.14159
   D18        0.00000   0.00000   0.00000   0.00000   0.00000   0.00000
   D19        0.00000   0.00000   0.00000   0.00000   0.00000   0.00000
   D20        3.14159   0.00000   0.00000   0.00000   0.00000   3.14159
   D21        3.14159   0.00000   0.00000   0.00000   0.00000   3.14159
   D22        0.00000   0.00000   0.00000   0.00000   0.00000   0.00000
   D23        0.00000   0.00000   0.00000   0.00000   0.00000   0.00000
   D24        3.14159   0.00000   0.00000   0.00000   0.00000   3.14159
   D25        3.14159   0.00000   0.00000   0.00000   0.00000   3.14159
   D26        0.00000   0.00000   0.00000   0.00000   0.00000   0.00000
   D27        0.00000   0.00000   0.00000   0.00000   0.00000   0.00000
   D28        3.14159   0.00000   0.00000   0.00000   0.00000   3.14159
   D29        3.14159   0.00000   0.00000   0.00000   0.00000   3.14159
   D30        0.00000   0.00000   0.00000   0.00000   0.00000   0.00000
   D31        0.00000   0.00000   0.00000   0.00000   0.00000   0.00000
   D32        3.14159   0.00000   0.00000   0.00000   0.00000   3.14159
   D33        3.14159   0.00000   0.00000   0.00000   0.00000   3.14159
   D34        0.00000   0.00000   0.00000   0.00000   0.00000   0.00000
   D35        0.00000   0.00000   0.00000   0.00000   0.00000   0.00000
   D36       -3.14159   0.00000   0.00000   0.00000   0.00000   3.14159
   D37        3.14159   0.00000   0.00000   0.00000   0.00000   3.14159
   D38        0.00000   0.00000   0.00000   0.00000   0.00000   0.00000
   D39        0.00000   0.00000   0.00000   0.00000   0.00000   0.00000
   D40       -3.14159   0.00000   0.00000   0.00000   0.00000   3.14159
   D41        3.14159   0.00000   0.00000   0.00000   0.00000   3.14159
   D42        0.00000   0.00000   0.00000   0.00000   0.00000   0.00000
   D43        0.00000   0.00000   0.00000   0.00000   0.00000   0.00000
   D44        3.14159   0.00000   0.00000   0.00000   0.00000   3.14159
         Item               Value     Threshold  Converged?
 Maximum Force            0.000013     0.000015     YES
 RMS     Force            0.000005     0.000010     YES
 Maximum Displacement     0.000162     0.000060     NO 
 RMS     Displacement     0.000053     0.000040     NO 
 Predicted change in Energy=-3.246023D-09
 GradGradGradGradGradGradGradGradGradGradGradGradGradGradGradGradGradGrad

                          Input orientation:                          
 ---------------------------------------------------------------------
 Center     Atomic      Atomic             Coordinates (Angstroms)
 Number     Number       Type             X           Y           Z
 ---------------------------------------------------------------------
      1          6           0        1.099413   -0.280560   -0.283568
      2          6           0        1.709798    0.537867   -1.164679
      3          6           0        3.171651    0.729506   -1.239409
      4          6           0        3.783822    1.559288   -2.133412
      5          6           0        5.234587    1.752523   -2.211085
      6          6           0        5.846693    2.584998   -3.108193
[...]
    19  H    6.555820   7.577243   6.860055   7.246980   4.990738
    20  H    5.126797   6.431254   7.548811   8.610464   6.917661
    21  H    4.204242   5.118174   9.196544   9.722430   7.491580
    22  H    2.736529   4.081228  10.047850  11.072873   9.249003
    23  H    2.202516   2.729864  11.604595  12.211949   9.996685
    24  H    1.100393   2.122029  12.539545  13.542897  11.645982
    25  H    2.140027   1.096218  14.742183  15.602037  13.542897
    26  H    2.138994   1.096844  14.078200  14.742183  12.539545
                   16         17         18         19         20
    16  H    0.000000
    17  H    3.106206   0.000000
    18  H    2.505105   3.146434   0.000000
    19  H    4.682197   2.499055   3.107045   0.000000
    20  H    5.005953   4.758145   2.500850   3.145489   0.000000
    21  H    6.835266   4.999906   4.682079   2.500850   3.107045
    22  H    7.505008   6.919273   4.999906   4.758145   2.499055
    23  H    9.169022   7.505008   6.835266   5.005953   4.682197
    24  H    9.996685   9.249003   7.491580   6.917661   4.990738
    25  H   12.211949  11.072873   9.722430   8.610464   7.246980
    26  H   11.604595  10.047850   9.196544   7.548811   6.860055
                   21         22         23         24         25
    21  H    0.000000
    22  H    3.146434   0.000000
    23  H    2.505105   3.106206   0.000000
    24  H    4.759371   2.491698   3.149004   0.000000
    25  H    6.176331   4.800148   3.823030   2.473088   0.000000
    26  H    5.048007   4.698589   2.542972   3.110004   1.864854
                   26
    26  H    0.000000
 Stoichiometry    C12H14
 Framework group  C2H[SGH(C12H14)]
 Deg. of freedom    25
 Full point group                 C2H     NOp   4
 Largest Abelian subgroup         C2H     NOp   4
 Largest concise Abelian subgroup C2      NOp   2
                         Standard orientation:                         
 ---------------------------------------------------------------------
 Center     Atomic      Atomic             Coordinates (Angstroms)
 Number     Number       Type             X           Y           Z
 ---------------------------------------------------------------------
      1          6           0        0.083465    6.848893    0.000000
      2          6           0        0.664261    5.631753    0.000000
      3          6           0       -0.083465    4.358870    0.000000
      4          6           0        0.509896    3.129862    0.000000
      5          6           0       -0.228452    1.863788    0.000000
      6          6           0        0.368226    0.632338    0.000000
      7          6           0       -0.368226   -0.632338    0.000000
      8          6           0        0.228452   -1.863788    0.000000
      9          6           0       -0.509896   -3.129862    0.000000
     10          6           0        0.083465   -4.358870    0.000000
     11          6           0       -0.664261   -5.631753    0.000000
     12          6           0       -0.083465   -6.848893    0.000000
     13          1           0       -1.007035    6.966693    0.000000
     14          1           0        0.675094    7.771752    0.000000
     15          1           0        1.761623    5.550127    0.000000
     16          1           0       -1.181313    4.429700    0.000000
     17          1           0        1.608146    3.063160    0.000000
     18          1           0       -1.326699    1.928817    0.000000
     19          1           0        1.466549    0.568120    0.000000
     20          1           0       -1.466549   -0.568120    0.000000
     21          1           0        1.326699   -1.928817    0.000000
     22          1           0       -1.608146   -3.063160    0.000000
     23          1           0        1.181313   -4.429700    0.000000
     24          1           0       -1.761623   -5.550127    0.000000
     25          1           0       -0.675094   -7.771752    0.000000
     26          1           0        1.007035   -6.966693    0.000000
 ---------------------------------------------------------------------
 Rotational constants (GHZ):     12.5802409      0.1670154      0.1648271

 **********************************************************************

            Population analysis using the SCF density.

 **********************************************************************

 Orbital symmetries:
       Occupied  (BU) (AG) (BU) (AG) (BU) (AG) (BU) (AG) (BU) (AG)
                 (BU) (AG) (AG) (BU) (AG) (BU) (AG) (BU) (AG) (BU)
                 (BU) (AG) (AG) (BU) (AG) (BU) (BU) (AG) (AG) (BU)
                 (AG) (BU) (BU) (AG) (AG) (BU) (AU) (AG) (BG) (AU)
                 (BG) (AU) (BG)
       Virtual   (AU) (BG) (AU) (BG) (AU) (BG) (BU) (AG) (BU) (AG)
                 (BU) (AG) (BU) (BU) (AG) (AG) (BU) (BU) (AG) (BU)
                 (AG) (AG) (BU) (BU) (AG) (AG) (BU) (BU) (AG) (BU)
                 (AG)
 The electronic state is 1-AG.
 Alpha  occ. eigenvalues --  -10.00828 -10.00828 -10.00757 -10.00738 -10.00722
 Alpha  occ. eigenvalues --  -10.00667 -10.00642 -10.00625 -10.00568 -10.00568
 Alpha  occ. eigenvalues --   -9.99162  -9.99162  -0.77884  -0.76684  -0.74790
 Alpha  occ. eigenvalues --   -0.72245  -0.69128  -0.65673  -0.59035  -0.55050
 Alpha  occ. eigenvalues --   -0.52501  -0.51793  -0.51162  -0.50524  -0.44118
 Alpha  occ. eigenvalues --   -0.42918  -0.42011  -0.40407  -0.38144  -0.37215
 Alpha  occ. eigenvalues --   -0.34696  -0.34665  -0.32674  -0.32605  -0.31433
 Alpha  occ. eigenvalues --   -0.30362  -0.29773  -0.29367  -0.28108  -0.25431
 Alpha  occ. eigenvalues --   -0.21784  -0.17284  -0.12369
 Alpha virt. eigenvalues --    0.00598   0.06233   0.11881   0.16853   0.20707
 Alpha virt. eigenvalues --    0.23128   0.31139   0.34089   0.37580   0.40309
 Alpha virt. eigenvalues --    0.40908   0.42032   0.42300   0.42815   0.42821
 Alpha virt. eigenvalues --    0.43131   0.43205   0.43363   0.43863   0.52632
 Alpha virt. eigenvalues --    0.53077   0.56600   0.58565   0.62212   0.63550
 Alpha virt. eigenvalues --    0.66803   0.68353   0.70527   0.73845   0.76457
 Alpha virt. eigenvalues --    0.77706
          Condensed to atoms (all electrons):
               1          2          3          4          5          6
     1  C    4.856342   0.579596  -0.027594   0.000686  -0.000006   0.000000
     2  C    0.579596   4.790041   0.426226  -0.026662   0.000812  -0.000006
     3  C   -0.027594   0.426226   4.818655   0.558303  -0.026967   0.000695
     4  C    0.000686  -0.026662   0.558303   4.809202   0.436893  -0.026925
     5  C   -0.000006   0.000812  -0.026967   0.436893   4.813438   0.553178
     6  C    0.000000  -0.000006   0.000695  -0.026925   0.553178   4.811653
     7  C    0.000000   0.000000  -0.000006   0.000815  -0.026988   0.439103
     8  C    0.000000   0.000000   0.000000  -0.000006   0.000698  -0.026988
     9  C    0.000000   0.000000   0.000000   0.000000  -0.000006   0.000815
    10  C    0.000000   0.000000   0.000000   0.000000   0.000000  -0.000006
    11  C    0.000000   0.000000   0.000000   0.000000   0.000000   0.000000
    12  C    0.000000   0.000000   0.000000   0.000000   0.000000   0.000000
    13  H    0.386161  -0.024408  -0.004209   0.000025  -0.000001   0.000000
    14  H    0.388066  -0.023834   0.001413  -0.000019   0.000000   0.000000
    15  H   -0.026795   0.385305  -0.025309  -0.003229   0.000003   0.000000
    16  H   -0.003081  -0.024626   0.384224  -0.026618  -0.004163   0.000024
    17  H    0.000027  -0.004217  -0.026731   0.384326  -0.024962  -0.003282
    18  H    0.000000   0.000004  -0.003261  -0.024893   0.384347  -0.026605
    19  H    0.000000  -0.000001   0.000025  -0.004171  -0.026630   0.384364
    20  H    0.000000   0.000000   0.000000   0.000005  -0.003293  -0.024965
    21  H    0.000000   0.000000   0.000000  -0.000001   0.000024  -0.004162
    22  H    0.000000   0.000000   0.000000   0.000000   0.000000   0.000005
    23  H    0.000000   0.000000   0.000000   0.000000   0.000000  -0.000001
    24  H    0.000000   0.000000   0.000000   0.000000   0.000000   0.000000
    25  H    0.000000   0.000000   0.000000   0.000000   0.000000   0.000000
    26  H    0.000000   0.000000   0.000000   0.000000   0.000000   0.000000
               7          8          9         10         11         12
     1  C    0.000000   0.000000   0.000000   0.000000   0.000000   0.000000
     2  C    0.000000   0.000000   0.000000   0.000000   0.000000   0.000000
     3  C   -0.000006   0.000000   0.000000   0.000000   0.000000   0.000000
     4  C    0.000815  -0.000006   0.000000   0.000000   0.000000   0.000000
     5  C   -0.026988   0.000698  -0.000006   0.000000   0.000000   0.000000
     6  C    0.439103  -0.026988   0.000815  -0.000006   0.000000   0.000000
     7  C    4.811653   0.553178  -0.026925   0.000695  -0.000006   0.000000
     8  C    0.553178   4.813438   0.436893  -0.026967   0.000812  -0.000006
     9  C   -0.026925   0.436893   4.809202   0.558303  -0.026662   0.000686
    10  C    0.000695  -0.026967   0.558303   4.818655   0.426226  -0.027594
    11  C   -0.000006   0.000812  -0.026662   0.426226   4.790041   0.579596
    12  C    0.000000  -0.000006   0.000686  -0.027594   0.579596   4.856342
    13  H    0.000000   0.000000   0.000000   0.000000   0.000000   0.000000
    14  H    0.000000   0.000000   0.000000   0.000000   0.000000   0.000000
    15  H    0.000000   0.000000   0.000000   0.000000   0.000000   0.000000
    16  H   -0.000001   0.000000   0.000000   0.000000   0.000000   0.000000
    17  H    0.000005   0.000000   0.000000   0.000000   0.000000   0.000000
    18  H   -0.004162   0.000024  -0.000001   0.000000   0.000000   0.000000
    19  H   -0.024965  -0.003293   0.000005   0.000000   0.000000   0.000000
    20  H    0.384364  -0.026630  -0.004171   0.000025  -0.000001   0.000000
    21  H   -0.026605   0.384347  -0.024893  -0.003261   0.000004   0.000000
    22  H   -0.003282  -0.024962   0.384326  -0.026731  -0.004217   0.000027
    23  H    0.000024  -0.004163  -0.026618   0.384224  -0.024626  -0.003081
    24  H    0.000000   0.000003  -0.003229  -0.025309   0.385305  -0.026795
    25  H    0.000000   0.000000  -0.000019   0.001413  -0.023834   0.388066
    26  H    0.000000  -0.000001   0.000025  -0.004209  -0.024408   0.386161
              13         14         15         16         17         18
     1  C    0.386161   0.388066  -0.026795  -0.003081   0.000027   0.000000
     2  C   -0.024408  -0.023834   0.385305  -0.024626  -0.004217   0.000004
     3  C   -0.004209   0.001413  -0.025309   0.384224  -0.026731  -0.003261
     4  C    0.000025  -0.000019  -0.003229  -0.026618   0.384326  -0.024893
     5  C   -0.000001   0.000000   0.000003  -0.004163  -0.024962   0.384347
     6  C    0.000000   0.000000   0.000000   0.000024  -0.003282  -0.026605
     7  C    0.000000   0.000000   0.000000  -0.000001   0.000005  -0.004162
     8  C    0.000000   0.000000   0.000000   0.000000   0.000000   0.000024
     9  C    0.000000   0.000000   0.000000   0.000000   0.000000  -0.000001
    10  C    0.000000   0.000000   0.000000   0.000000   0.000000   0.000000
    11  C    0.000000   0.000000   0.000000   0.000000   0.000000   0.000000
    12  C    0.000000   0.000000   0.000000   0.000000   0.000000   0.000000
    13  H    0.586656  -0.023569   0.002005   0.000954   0.000001   0.000000
    14  H   -0.023569   0.584181  -0.004631   0.000000  -0.000001   0.000000
    15  H    0.002005  -0.004631   0.592555   0.001554   0.001015   0.000000
    16  H    0.000954   0.000000   0.001554   0.592424   0.001971   0.000976
    17  H    0.000001  -0.000001   0.001015   0.001971   0.592816   0.001580
    18  H    0.000000   0.000000   0.000000   0.000976   0.001580   0.592560
    19  H    0.000000   0.000000   0.000000   0.000001   0.000984   0.001959
    20  H    0.000000   0.000000   0.000000   0.000000   0.000000   0.000981
    21  H    0.000000   0.000000   0.000000   0.000000   0.000000   0.000001
    22  H    0.000000   0.000000   0.000000   0.000000   0.000000   0.000000
    23  H    0.000000   0.000000   0.000000   0.000000   0.000000   0.000000
    24  H    0.000000   0.000000   0.000000   0.000000   0.000000   0.000000
    25  H    0.000000   0.000000   0.000000   0.000000   0.000000   0.000000
    26  H    0.000000   0.000000   0.000000   0.000000   0.000000   0.000000
              19         20         21         22         23         24
     1  C    0.000000   0.000000   0.000000   0.000000   0.000000   0.000000
     2  C   -0.000001   0.000000   0.000000   0.000000   0.000000   0.000000
     3  C    0.000025   0.000000   0.000000   0.000000   0.000000   0.000000
     4  C   -0.004171   0.000005  -0.000001   0.000000   0.000000   0.000000
     5  C   -0.026630  -0.003293   0.000024   0.000000   0.000000   0.000000
     6  C    0.384364  -0.024965  -0.004162   0.000005  -0.000001   0.000000
     7  C   -0.024965   0.384364  -0.026605  -0.003282   0.000024   0.000000
     8  C   -0.003293  -0.026630   0.384347  -0.024962  -0.004163   0.000003
     9  C    0.000005  -0.004171  -0.024893   0.384326  -0.026618  -0.003229
    10  C    0.000000   0.000025  -0.003261  -0.026731   0.384224  -0.025309
    11  C    0.000000  -0.000001   0.000004  -0.004217  -0.024626   0.385305
    12  C    0.000000   0.000000   0.000000   0.000027  -0.003081  -0.026795
    13  H    0.000000   0.000000   0.000000   0.000000   0.000000   0.000000
    14  H    0.000000   0.000000   0.000000   0.000000   0.000000   0.000000
    15  H    0.000000   0.000000   0.000000   0.000000   0.000000   0.000000
    16  H    0.000001   0.000000   0.000000   0.000000   0.000000   0.000000
    17  H    0.000984   0.000000   0.000000   0.000000   0.000000   0.000000
    18  H    0.001959   0.000981   0.000001   0.000000   0.000000   0.000000
    19  H    0.592681   0.001588   0.000981   0.000000   0.000000   0.000000
    20  H    0.001588   0.592681   0.001959   0.000984   0.000001   0.000000
    21  H    0.000981   0.001959   0.592560   0.001580   0.000976   0.000000
    22  H    0.000000   0.000984   0.001580   0.592816   0.001971   0.001015
    23  H    0.000000   0.000001   0.000976   0.001971   0.592424   0.001554
    24  H    0.000000   0.000000   0.000000   0.001015   0.001554   0.592555
    25  H    0.000000   0.000000   0.000000  -0.000001   0.000000  -0.004631
    26  H    0.000000   0.000000   0.000000   0.000001   0.000954   0.002005
              25         26
     1  C    0.000000   0.000000
     2  C    0.000000   0.000000
     3  C    0.000000   0.000000
     4  C    0.000000   0.000000
     5  C    0.000000   0.000000
     6  C    0.000000   0.000000
     7  C    0.000000   0.000000
     8  C    0.000000  -0.000001
     9  C   -0.000019   0.000025
    10  C    0.001413  -0.004209
    11  C   -0.023834  -0.024408
    12  C    0.388066   0.386161
    13  H    0.000000   0.000000
    14  H    0.000000   0.000000
    15  H    0.000000   0.000000
    16  H    0.000000   0.000000
    17  H    0.000000   0.000000
    18  H    0.000000   0.000000
    19  H    0.000000   0.000000
    20  H    0.000000   0.000000
    21  H    0.000000   0.000000
    22  H   -0.000001   0.000001
    23  H    0.000000   0.000954
    24  H   -0.004631   0.002005
    25  H    0.584181  -0.023569
    26  H   -0.023569   0.586656
 Mulliken charges:
               1
     1  C   -0.153401
     2  C   -0.078229
     3  C   -0.075463
     4  C   -0.077730
     5  C   -0.076378
     6  C   -0.076897
     7  C   -0.076897
     8  C   -0.076378
     9  C   -0.077730
    10  C   -0.075463
    11  C   -0.078229
    12  C   -0.153401
    13  H    0.076385
    14  H    0.078394
    15  H    0.077528
    16  H    0.076360
    17  H    0.076469
    18  H    0.076491
    19  H    0.076473
    20  H    0.076473
    21  H    0.076491
    22  H    0.076469
    23  H    0.076360
    24  H    0.077528
    25  H    0.078394
    26  H    0.076385
 Sum of Mulliken charges =   0.00000
 Mulliken charges with hydrogens summed into heavy atoms:
               1
     1  C    0.001377
     2  C   -0.000701
     3  C    0.000897
     4  C   -0.001261
     5  C    0.000112
     6  C   -0.000425
     7  C   -0.000425
     8  C    0.000112
     9  C   -0.001261
    10  C    0.000897
    11  C   -0.000701
    12  C    0.001377
 Electronic spatial extent (au):  <R**2>=           6276.8433
 Charge=              0.0000 electrons
 Dipole moment (field-independent basis, Debye):
    X=              0.0000    Y=              0.0000    Z=              0.0000  Tot=              0.0000
 Quadrupole moment (field-independent basis, Debye-Ang):
   XX=            -61.6576   YY=            -62.3635   ZZ=            -72.1138
   XY=             -0.1812   XZ=              0.0000   YZ=              0.0000
 Traceless Quadrupole moment (field-independent basis, Debye-Ang):
   XX=              3.7207   YY=              3.0148   ZZ=             -6.7355
   XY=             -0.1812   XZ=              0.0000   YZ=              0.0000
 Octapole moment (field-independent basis, Debye-Ang**2):
  XXX=              0.0000  YYY=              0.0000  ZZZ=              0.0000  XYY=              0.0000
  XXY=              0.0000  XXZ=              0.0000  XZZ=              0.0000  YZZ=              0.0000
  YYZ=              0.0000  XYZ=              0.0000
 Hexadecapole moment (field-independent basis, Debye-Ang**3):
 XXXX=           -193.1285 YYYY=          -7384.5546 ZZZZ=            -58.5055 XXXY=           -169.7176
 XXXZ=              0.0000 YYYX=           -151.7095 YYYZ=              0.0000 ZZZX=              0.0000
 ZZZY=              0.0000 XXYY=          -1254.5004 XXZZ=            -48.3094 YYZZ=          -1430.1313
 XXYZ=              0.0000 YYXZ=              0.0000 ZZXY=            -64.2484
 N-N= 5.273369548186D+02 E-N=-2.118708624874D+03  KE= 4.523363349574D+02
 Symmetry AG   KE= 2.202036091101D+02
 Symmetry BG   KE= 7.759759543630D+00
 Symmetry AU   KE= 7.347202490686D+00
 Symmetry BU   KE= 2.170257638130D+02
 1\1\GINC-MW\FOpt\RB3LYP\STO-3G\C12H14\BING\25-Feb-2019\0\\# opt(tight)
  b3lyp/sto-3g\\c12h14\\0,1\C,1.099394636,-0.2805564394,-0.2835739615\C
 ,1.7098081578,0.5378634074,-1.1646736274\C,3.171663883,0.7294903381,-1
 .2393898645\C,3.7838354767,1.5592737065,-2.1333935163\C,5.2346031691,1
 .752511897,-2.2110705361\C,5.8466926743,2.5849924318,-3.1081868094\C,7
 .2952004081,2.778546781,-3.1864531978\C,7.9072899133,3.6110273158,-4.0
 835694711\C,9.3580576056,3.8042655063,-4.1612464909\C,9.9702291994,4.6
 340488747,-5.0552501427\C,11.4320849245,4.8256758054,-5.1299663798\C,1
 2.0424984463,5.6440956522,-6.0110660457\H,1.6688366907,-0.8667709781,0
 .447969372\H,0.0094367603,-0.3952162034,-0.2603433731\H,1.1075652526,1
 .1115792364,-1.8851034407\H,3.7827475597,0.1602702624,-0.5232526291\H,
 3.1692400228,2.1268808996,-2.8480246897\H,5.8505201778,1.1856400534,-1
 .4971538999\H,5.2300870346,3.1515458208,-3.8218056083\H,7.9118060477,2
 .211993392,-2.4728343989\H,7.2913729045,4.1778991594,-4.7974861073\H,9
 .9726530596,3.2366583132,-3.4466153175\H,9.3591455226,5.2032689504,-5.
 7713873781\H,12.0343278298,4.2519599764,-4.4095365666\H,13.1324563221,
 5.7587554162,-6.0342966341\H,11.4730563917,6.2303101909,-6.7426093792\
 \Version=ES64L-G09RevD.01\State=1-AG\HF=-459.9024096\RMSD=2.909e-09\RM
 SF=7.481e-07\Dipole=0.,0.,0.\Quadrupole=2.2747108,-1.6878583,-0.586852
 5,0.216577,0.4772666,-3.7994918\PG=C02H [SGH(C12H14)]\\@


 WHEN A MATHEMATICIAN ENGAGED IN INVESTIGATING
 PHYSICAL ACTIONS AND RESULTS HAS ARRIVED AT HIS
 CONCLUSIONS, MAY THEY NOT BE EXPRESSED IN COMMON
 LANGUAGE AS FULLY, CLEARLY, AND DEFINITELY AS IN
 MATHEMATICAL FORMULAE?
           - LETTER FROM M. FARADAY TO J.C. MAXWELL, 1857.
 Job cpu time:       0 days  0 hours  1 minutes 25.8 seconds.
 File lengths (MBytes):  RWF=      5 Int=      0 D2E=      0 Chk=      2 Scr=      1
 Normal termination of Gaussian 09 at Mon Feb 25 22:30:37 2019.
