 Entering Gaussian System, Link 0=g09
 Input=c14h16.com
 Output=c14h16.out
 Initial command:
 /home/bing/src/g09_d.01/g09/l1.exe "/data/trash/Gau-5490.inp" -scrdir="/data/trash/"
 Entering Link 1 = /home/bing/src/g09_d.01/g09/l1.exe PID=      5492.
  
 Copyright (c) 1988,1990,1992,1993,1995,1998,2003,2009,2013,
            Gaussian, Inc.  All Rights Reserved.
  
 This is part of the Gaussian(R) 09 program.  It is based on
 the Gaussian(R) 03 system (copyright 2003, Gaussian, Inc.),
 the Gaussian(R) 98 system (copyright 1998, Gaussian, Inc.),
 the Gaussian(R) 94 system (copyright 1995, Gaussian, Inc.),
 the Gaussian 92(TM) system (copyright 1992, Gaussian, Inc.),
 the Gaussian 90(TM) system (copyright 1990, Gaussian, Inc.),
 the Gaussian 88(TM) system (copyright 1988, Gaussian, Inc.),
 the Gaussian 86(TM) system (copyright 1986, Carnegie Mellon
 University), and the Gaussian 82(TM) system (copyright 1983,
 Carnegie Mellon University). Gaussian is a federally registered
 trademark of Gaussian, Inc.
  
 This software contains proprietary and confidential information,
 including trade secrets, belonging to Gaussian, Inc.
  
 This software is provided under written license and may be
 used, copied, transmitted, or stored only in accord with that
 written license.
  
 The following legend is applicable only to US Government
 contracts under FAR:
  
                    RESTRICTED RIGHTS LEGEND
  
 Use, reproduction and disclosure by the US Government is
 subject to restrictions as set forth in subparagraphs (a)
 and (c) of the Commercial Computer Software - Restricted
 Rights clause in FAR 52.227-19.
  
 Gaussian, Inc.
 340 Quinnipiac St., Bldg. 40, Wallingford CT 06492
  
  
 ---------------------------------------------------------------
 Warning -- This program may not be used in any manner that
 competes with the business of Gaussian, Inc. or will provide
 assistance to any competitor of Gaussian, Inc.  The licensee
 of this program is prohibited from giving any competitor of
 Gaussian, Inc. access to this program.  By using this program,
 the user acknowledges that Gaussian, Inc. is engaged in the
 business of creating and licensing software in the field of
 computational chemistry and represents and warrants to the
 licensee that it is not a competitor of Gaussian, Inc. and that
 it will not use this program in any manner prohibited above.
 ---------------------------------------------------------------
  

 Cite this work as:
 Gaussian 09, Revision D.01,
 M. J. Frisch, G. W. Trucks, H. B. Schlegel, G. E. Scuseria, 
 M. A. Robb, J. R. Cheeseman, G. Scalmani, V. Barone, B. Mennucci, 
 G. A. Petersson, H. Nakatsuji, M. Caricato, X. Li, H. P. Hratchian, 
 A. F. Izmaylov, J. Bloino, G. Zheng, J. L. Sonnenberg, M. Hada, 
 M. Ehara, K. Toyota, R. Fukuda, J. Hasegawa, M. Ishida, T. Nakajima, 
 Y. Honda, O. Kitao, H. Nakai, T. Vreven, J. A. Montgomery, Jr., 
 J. E. Peralta, F. Ogliaro, M. Bearpark, J. J. Heyd, E. Brothers, 
 K. N. Kudin, V. N. Staroverov, T. Keith, R. Kobayashi, J. Normand, 
 K. Raghavachari, A. Rendell, J. C. Burant, S. S. Iyengar, J. Tomasi, 
 M. Cossi, N. Rega, J. M. Millam, M. Klene, J. E. Knox, J. B. Cross, 
 V. Bakken, C. Adamo, J. Jaramillo, R. Gomperts, R. E. Stratmann, 
 O. Yazyev, A. J. Austin, R. Cammi, C. Pomelli, J. W. Ochterski, 
 R. L. Martin, K. Morokuma, V. G. Zakrzewski, G. A. Voth, 
 P. Salvador, J. J. Dannenberg, S. Dapprich, A. D. Daniels, 
 O. Farkas, J. B. Foresman, J. V. Ortiz, J. Cioslowski, 
 and D. J. Fox, Gaussian, Inc., Wallingford CT, 2013.
 
 ******************************************
 Gaussian 09:  ES64L-G09RevD.01 24-Apr-2013
                25-Feb-2019 
 ******************************************
 %nproc=6
 Will use up to    6 processors via shared memory.
 -------------------------
 # opt(tight) b3lyp/sto-3g
 -------------------------
 1/7=10,14=-1,18=20,19=15,26=3,38=1/1,3;
 2/9=110,12=2,17=6,18=5,40=1/2;
 3/6=3,11=2,16=1,25=1,30=1,71=1,74=-5/1,2,3;
 4//1;
 5/5=2,38=5/2;
 6/7=2,8=2,9=2,10=2,28=1/1;
 7//1,2,3,16;
 1/7=10,14=-1,18=20,19=15,26=3/3(2);
 2/9=110/2;
 99//99;
 2/9=110/2;
 3/6=3,11=2,16=1,25=1,30=1,71=1,74=-5/1,2,3;
 4/5=5,16=3,69=1/1;
 5/5=2,38=5/2;
 7//1,2,3,16;
 1/7=10,14=-1,18=20,19=15,26=3/3(-5);
 2/9=110/2;
 6/7=2,8=2,9=2,10=2,19=2,28=1/1;
 99/9=1/99;
 ------
 c14h16
 ------
 Symbolic Z-matrix:
 Charge =  0 Multiplicity = 1
 C                     1.10475  -0.34791  -0.20549 
 C                     1.69273   0.4768   -1.09607 
 C                     3.15075   0.68609  -1.19151 
 C                     3.73999   1.52238  -2.0953 
 C                     5.18637   1.73339  -2.19388 
 C                     5.77529   2.57275  -3.10122 
 C                     7.21844   2.78426  -3.20071 
 C                     7.80732   3.62436  -4.1089 
 C                     9.25047   3.83587  -4.20839 
 C                     9.83938   4.67523  -5.11574 
 C                     11.28576   4.88624  -5.21432 
 C                     11.87499   5.72254  -6.1181 
 C                     13.33301   5.93183  -6.21355 
 C                     13.92099   6.75654  -7.10413 
 H                     0.01672  -0.47583  -0.1668 
 H                     1.6916   -0.92615   0.5186 
 H                     1.07356   1.04224  -1.80866 
 H                     3.77897   0.12542  -0.48351 
 H                     3.10809   2.08129  -2.80164 
 H                     5.8198    1.17535  -1.48839 
 H                     5.14084   3.1303   -3.80625 
 H                     7.85325   2.22692  -2.49588 
 H                     7.17251   4.1817   -4.81373 
 H                     9.88491   3.27833  -3.50336 
 H                     9.20595   5.23327  -5.82122 
 H                     11.91767   4.32733  -4.50798 
 H                     11.24678   6.28321  -6.8261 
 H                     13.9522   5.3664   -5.50097 
 H                     13.33414   7.33478  -7.82822 
 H                     15.00902   6.88447  -7.14283 
 

 GradGradGradGradGradGradGradGradGradGradGradGradGradGradGradGradGradGrad
 Berny optimization.
 Initialization pass.
                           ----------------------------
                           !    Initial Parameters    !
                           ! (Angstroms and Degrees)  !
 --------------------------                            --------------------------
 ! Name  Definition              Value          Derivative Info.                !
 --------------------------------------------------------------------------------
 ! R1    R(1,2)                  1.3487         estimate D2E/DX2                !
 ! R2    R(1,15)                 1.0962         estimate D2E/DX2                !
 ! R3    R(1,16)                 1.0968         estimate D2E/DX2                !
 ! R4    R(2,3)                  1.4761         estimate D2E/DX2                !
 ! R5    R(2,17)                 1.1004         estimate D2E/DX2                !
 ! R6    R(3,4)                  1.3651         estimate D2E/DX2                !
 ! R7    R(3,18)                 1.1001         estimate D2E/DX2                !
 ! R8    R(4,5)                  1.465          estimate D2E/DX2                !
 ! R9    R(4,19)                 1.1003         estimate D2E/DX2                !
 ! R10   R(5,6)                  1.3692         estimate D2E/DX2                !
 ! R11   R(5,20)                 1.1002         estimate D2E/DX2                !
 ! R12   R(6,7)                  1.462          estimate D2E/DX2                !
 ! R13   R(6,21)                 1.1002         estimate D2E/DX2                !
 ! R14   R(7,8)                  1.3702         estimate D2E/DX2                !
 ! R15   R(7,22)                 1.1002         estimate D2E/DX2                !
 ! R16   R(8,9)                  1.462          estimate D2E/DX2                !
 ! R17   R(8,23)                 1.1002         estimate D2E/DX2                !
 ! R18   R(9,10)                 1.3692         estimate D2E/DX2                !
 ! R19   R(9,24)                 1.1002         estimate D2E/DX2                !
 ! R20   R(10,11)                1.465          estimate D2E/DX2                !
 ! R21   R(10,25)                1.1002         estimate D2E/DX2                !
 ! R22   R(11,12)                1.3651         estimate D2E/DX2                !
 ! R23   R(11,26)                1.1003         estimate D2E/DX2                !
 ! R24   R(12,13)                1.4761         estimate D2E/DX2                !
 ! R25   R(12,27)                1.1001         estimate D2E/DX2                !
 ! R26   R(13,14)                1.3487         estimate D2E/DX2                !
 ! R27   R(13,28)                1.1004         estimate D2E/DX2                !
 ! R28   R(14,29)                1.0968         estimate D2E/DX2                !
 ! R29   R(14,30)                1.0962         estimate D2E/DX2                !
 ! A1    A(2,1,15)             121.8286         estimate D2E/DX2                !
 ! A2    A(2,1,16)             121.6701         estimate D2E/DX2                !
 ! A3    A(15,1,16)            116.5012         estimate D2E/DX2                !
 ! A4    A(1,2,3)              124.0582         estimate D2E/DX2                !
 ! A5    A(1,2,17)             119.7689         estimate D2E/DX2                !
 ! A6    A(3,2,17)             116.1729         estimate D2E/DX2                !
 ! A7    A(2,3,4)              123.7833         estimate D2E/DX2                !
 ! A8    A(2,3,18)             116.7557         estimate D2E/DX2                !
 ! A9    A(4,3,18)             119.461          estimate D2E/DX2                !
 ! A10   A(3,4,5)              123.9833         estimate D2E/DX2                !
 ! A11   A(3,4,19)             119.2313         estimate D2E/DX2                !
 ! A12   A(5,4,19)             116.7854         estimate D2E/DX2                !
 ! A13   A(4,5,6)              123.8863         estimate D2E/DX2                !
 ! A14   A(4,5,20)             116.8868         estimate D2E/DX2                !
 ! A15   A(6,5,20)             119.2269         estimate D2E/DX2                !
 ! A16   A(5,6,7)              123.9441         estimate D2E/DX2                !
 ! A17   A(5,6,21)             119.1633         estimate D2E/DX2                !
 ! A18   A(7,6,21)             116.8926         estimate D2E/DX2                !
 ! A19   A(6,7,8)              123.9226         estimate D2E/DX2                !
 ! A20   A(6,7,22)             116.9168         estimate D2E/DX2                !
 ! A21   A(8,7,22)             119.1606         estimate D2E/DX2                !
 ! A22   A(7,8,9)              123.9227         estimate D2E/DX2                !
 ! A23   A(7,8,23)             119.1605         estimate D2E/DX2                !
 ! A24   A(9,8,23)             116.9168         estimate D2E/DX2                !
 ! A25   A(8,9,10)             123.944          estimate D2E/DX2                !
 ! A26   A(8,9,24)             116.8926         estimate D2E/DX2                !
 ! A27   A(10,9,24)            119.1633         estimate D2E/DX2                !
 ! A28   A(9,10,11)            123.8863         estimate D2E/DX2                !
 ! A29   A(9,10,25)            119.2269         estimate D2E/DX2                !
 ! A30   A(11,10,25)           116.8868         estimate D2E/DX2                !
 ! A31   A(10,11,12)           123.9833         estimate D2E/DX2                !
 ! A32   A(10,11,26)           116.7854         estimate D2E/DX2                !
 ! A33   A(12,11,26)           119.2313         estimate D2E/DX2                !
 ! A34   A(11,12,13)           123.7834         estimate D2E/DX2                !
 ! A35   A(11,12,27)           119.461          estimate D2E/DX2                !
 ! A36   A(13,12,27)           116.7556         estimate D2E/DX2                !
 ! A37   A(12,13,14)           124.0582         estimate D2E/DX2                !
 ! A38   A(12,13,28)           116.173          estimate D2E/DX2                !
 ! A39   A(14,13,28)           119.7689         estimate D2E/DX2                !
 ! A40   A(13,14,29)           121.6701         estimate D2E/DX2                !
 ! A41   A(13,14,30)           121.8287         estimate D2E/DX2                !
 ! A42   A(29,14,30)           116.5012         estimate D2E/DX2                !
 ! D1    D(15,1,2,3)          -180.0            estimate D2E/DX2                !
 ! D2    D(15,1,2,17)            0.0            estimate D2E/DX2                !
 ! D3    D(16,1,2,3)             0.0            estimate D2E/DX2                !
 ! D4    D(16,1,2,17)          180.0            estimate D2E/DX2                !
 ! D5    D(1,2,3,4)            180.0            estimate D2E/DX2                !
 ! D6    D(1,2,3,18)             0.0            estimate D2E/DX2                !
 ! D7    D(17,2,3,4)             0.0            estimate D2E/DX2                !
 ! D8    D(17,2,3,18)         -180.0            estimate D2E/DX2                !
 ! D9    D(2,3,4,5)            180.0            estimate D2E/DX2                !
 ! D10   D(2,3,4,19)             0.0            estimate D2E/DX2                !
 ! D11   D(18,3,4,5)             0.0            estimate D2E/DX2                !
 ! D12   D(18,3,4,19)         -180.0            estimate D2E/DX2                !
 ! D13   D(3,4,5,6)           -180.0            estimate D2E/DX2                !
 ! D14   D(3,4,5,20)             0.0            estimate D2E/DX2                !
 ! D15   D(19,4,5,6)             0.0            estimate D2E/DX2                !
 ! D16   D(19,4,5,20)          180.0            estimate D2E/DX2                !
 ! D17   D(4,5,6,7)            180.0            estimate D2E/DX2                !
 ! D18   D(4,5,6,21)             0.0            estimate D2E/DX2                !
 ! D19   D(20,5,6,7)             0.0            estimate D2E/DX2                !
 ! D20   D(20,5,6,21)         -180.0            estimate D2E/DX2                !
 ! D21   D(5,6,7,8)           -180.0            estimate D2E/DX2                !
 ! D22   D(5,6,7,22)             0.0            estimate D2E/DX2                !
 ! D23   D(21,6,7,8)             0.0            estimate D2E/DX2                !
 ! D24   D(21,6,7,22)          180.0            estimate D2E/DX2                !
 ! D25   D(6,7,8,9)           -180.0            estimate D2E/DX2                !
 ! D26   D(6,7,8,23)             0.0            estimate D2E/DX2                !
 ! D27   D(22,7,8,9)             0.0            estimate D2E/DX2                !
 ! D28   D(22,7,8,23)          180.0            estimate D2E/DX2                !
 ! D29   D(7,8,9,10)          -180.0            estimate D2E/DX2                !
 ! D30   D(7,8,9,24)             0.0            estimate D2E/DX2                !
 ! D31   D(23,8,9,10)            0.0            estimate D2E/DX2                !
 ! D32   D(23,8,9,24)          180.0            estimate D2E/DX2                !
 ! D33   D(8,9,10,11)          180.0            estimate D2E/DX2                !
 ! D34   D(8,9,10,25)            0.0            estimate D2E/DX2                !
 ! D35   D(24,9,10,11)           0.0            estimate D2E/DX2                !
 ! D36   D(24,9,10,25)        -180.0            estimate D2E/DX2                !
 ! D37   D(9,10,11,12)        -180.0            estimate D2E/DX2                !
 ! D38   D(9,10,11,26)           0.0            estimate D2E/DX2                !
 ! D39   D(25,10,11,12)          0.0            estimate D2E/DX2                !
 ! D40   D(25,10,11,26)        180.0            estimate D2E/DX2                !
 ! D41   D(10,11,12,13)       -180.0            estimate D2E/DX2                !
 ! D42   D(10,11,12,27)          0.0            estimate D2E/DX2                !
 ! D43   D(26,11,12,13)          0.0            estimate D2E/DX2                !
 ! D44   D(26,11,12,27)        180.0            estimate D2E/DX2                !
 ! D45   D(11,12,13,14)       -180.0            estimate D2E/DX2                !
 ! D46   D(11,12,13,28)          0.0            estimate D2E/DX2                !
 ! D47   D(27,12,13,14)          0.0            estimate D2E/DX2                !
 ! D48   D(27,12,13,28)        180.0            estimate D2E/DX2                !
 ! D49   D(12,13,14,29)          0.0            estimate D2E/DX2                !
 ! D50   D(12,13,14,30)        180.0            estimate D2E/DX2                !
 ! D51   D(28,13,14,29)       -180.0            estimate D2E/DX2                !
 ! D52   D(28,13,14,30)          0.0            estimate D2E/DX2                !
 --------------------------------------------------------------------------------
 Trust Radius=3.00D-01 FncErr=1.00D-07 GrdErr=1.00D-06
 Number of steps in this run=    133 maximum allowed number of steps=    180.
 GradGradGradGradGradGradGradGradGradGradGradGradGradGradGradGradGradGrad

                          Input orientation:                          
 ---------------------------------------------------------------------
 Center     Atomic      Atomic             Coordinates (Angstroms)
 Number     Number       Type             X           Y           Z
 ---------------------------------------------------------------------
      1          6           0        1.104747   -0.347909   -0.205494
      2          6           0        1.692733    0.476801   -1.096073
      3          6           0        3.150755    0.686091   -1.191513
      4          6           0        3.739989    1.522383   -2.095299
      5          6           0        5.186372    1.733391   -2.193877
      6          6           0        5.775288    2.572749   -3.101223
      7          6           0        7.218436    2.784264   -3.200707
      8          6           0        7.807320    3.624357   -4.108903
      9          6           0        9.250468    3.835872   -4.208388
     10          6           0        9.839381    4.675231   -5.115735
     11          6           0       11.285763    4.886241   -5.214317
     12          6           0       11.874993    5.722536   -6.118105
     13          6           0       13.333014    5.931830   -6.213550
     14          6           0       13.920993    6.756541   -7.104131
     15          1           0        0.016717   -0.475834   -0.166795
     16          1           0        1.691599   -0.926150    0.518602
     17          1           0        1.073555    1.042237   -1.808655
     18          1           0        3.778966    0.125419   -0.483513
     19          1           0        3.108086    2.081294   -2.801640
     20          1           0        5.819798    1.175353   -1.488388
     21          1           0        5.140843    3.130296   -3.806249
     22          1           0        7.853248    2.226922   -2.495881
     23          1           0        7.172507    4.181699   -4.813729
     24          1           0        9.884914    3.278326   -3.503364
     25          1           0        9.205953    5.233268   -5.821224
     26          1           0       11.917669    4.327332   -4.507977
     27          1           0       11.246778    6.283205   -6.826103
     28          1           0       13.952196    5.366396   -5.500970
     29          1           0       13.334137    7.334780   -7.828225
     30          1           0       15.009023    6.884469   -7.142834
 ---------------------------------------------------------------------
                    Distance matrix (angstroms):
                    1          2          3          4          5
     1  C    0.000000
     2  C    1.348704   0.000000
     3  C    2.495503   1.476055   0.000000
     4  C    3.743509   2.506583   1.365069   0.000000
     5  C    4.994511   3.871655   2.499062   1.465013   0.000000
     6  C    6.223298   5.008082   3.754284   2.501517   1.369167
     7  C    7.493931   6.347225   4.998522   3.861847   2.499465
     8  C    8.714354   7.508158   6.231225   5.001606   3.756653
     9  C    9.993996   8.836811   7.498611   6.338987   4.999556
    10  C   11.208757  10.007616   8.720693   7.501070   6.232349
    11  C   12.495508  11.332666  10.000129   8.830770   7.501072
    12  C   13.704286  12.506677  11.213805  10.000126   8.720693
    13  C   15.002078  13.836259  12.506680  11.332666  10.007619
    14  C   16.196313  15.002075  13.704286  12.495505  11.208757
    15  H    1.096208   2.140116   3.496041   4.644863   5.976208
    16  H    1.096847   2.139029   2.766396   4.125979   5.161797
    17  H    2.122169   1.100396   2.196011   2.724441   4.188240
    18  H    2.729978   2.202514   1.100120   2.133280   2.737099
    19  H    4.080976   2.736163   2.130945   1.100273   2.193099
    20  H    5.118383   4.204112   2.729708   2.194169   1.100160
    21  H    6.430662   5.125969   4.095295   2.734067   2.133813
    22  H    7.577459   6.555482   5.117517   4.192343   2.728921
    23  H    8.864022   7.587830   6.443153   5.122889   4.099093
    24  H   10.055687   8.986402   7.577152   6.544164   5.116432
    25  H   11.327642  10.069732   8.875611   7.584849   6.447000
    26  H   12.541472  11.446267  10.055664   8.975701   7.575880
    27  H   13.808147  12.562936  11.341159  10.069648   8.881827
    28  H   15.025055  13.914226  12.535861  11.430843  10.048644
    29  H   16.330576  15.095564  13.854685  12.597542  11.380137
    30  H   17.139512  15.967001  14.644338  13.461823  12.145380
                    6          7          8          9         10
     6  C    0.000000
     7  C    1.461955   0.000000
     8  C    2.500090   1.370168   0.000000
     9  C    3.859815   2.500091   1.461955   0.000000
    10  C    4.999554   3.756653   2.499464   1.369167   0.000000
    11  C    6.338986   5.001608   3.861847   2.501518   1.465013
    12  C    7.498609   6.231225   4.998521   3.754284   2.499061
    13  C    8.836811   7.508159   6.347225   5.008083   3.871655
    14  C    9.993994   8.714355   7.493929   6.223298   4.994510
    15  H    7.146038   8.467444   9.645997  10.963003  12.145378
    16  H    6.482434   7.625376   8.917565  10.107314  11.380140
    17  H    5.110723   6.536974   7.569813   8.968000  10.048638
    18  H    4.102089   5.126652   6.450865   7.588116   8.881830
    19  H    2.728597   4.189081   5.115933   6.541127   7.575875
    20  H    2.134464   2.734378   4.100605   5.123111   6.447003
    21  H    1.100200   2.191532   2.728698   4.189101   5.116428
    22  H    2.191793   1.100180   2.134660   2.733793   4.099094
    23  H    2.733792   2.134660   1.100180   2.191793   2.728919
    24  H    4.189103   2.728700   2.191532   1.100200   2.133813
    25  H    5.123107   4.100604   2.734376   2.134464   1.100160
    26  H    6.541129   5.115937   4.189082   2.728599   2.193100
    27  H    7.588111   6.450863   5.126649   4.102088   2.737098
    28  H    8.968003   7.569817   6.536976   5.110725   4.188241
    29  H   10.107309   8.917562   7.625373   6.482432   5.161795
    30  H   10.963002   9.645999   8.467444   7.146039   5.976208
                   11         12         13         14         15
    11  C    0.000000
    12  C    1.365069   0.000000
    13  C    2.506583   1.476055   0.000000
    14  C    3.743509   2.495503   1.348704   0.000000
    15  H   13.461824  14.644336  15.967002  17.139509   0.000000
    16  H   12.597549  13.854689  15.095573  16.330582   1.864881
    17  H   11.430839  12.535853  13.914221  15.025046   2.473287
    18  H   10.069654  11.341164  12.562944  13.808153   3.823130
    19  H    8.975697  10.055657  11.446262  12.541464   4.799778
    20  H    7.584854   8.875615  10.069739  11.327648   6.176469
    21  H    6.544161   7.577147   8.986398  10.055681   7.246134
    22  H    5.122893   6.443155   7.587835   8.864025   8.610502
    23  H    4.192341   5.117514   6.555479   7.577455   9.720696
    24  H    2.734068   4.095296   5.125972   6.430664  11.072836
    25  H    2.194168   2.729706   4.204110   5.118381  12.206902
    26  H    1.100273   2.130945   2.736164   4.080977  13.548023
    27  H    2.133280   1.100120   2.202513   2.729977  14.701879
    28  H    2.724442   2.196011   1.100396   2.122169  16.024438
    29  H    4.125978   2.766396   2.139029   1.096847  17.235338
    30  H    4.644864   3.496041   2.140116   1.096208  18.099956
                   16         17         18         19         20
    16  H    0.000000
    17  H    3.110088   0.000000
    18  H    2.543056   3.148936   0.000000
    19  H    4.698422   2.490979   3.106323   0.000000
    20  H    5.048401   4.758898   2.505420   3.146227   0.000000
    21  H    6.859765   4.989309   4.682368   2.498348   3.107292
    22  H    7.549497   6.916646   5.006568   4.757233   2.501152
    23  H    9.195881   7.488919   6.835225   4.997971   4.682503
    24  H   10.049092   9.247279   7.506192   6.917420   5.000779
    25  H   11.601609   9.990062   9.166977   7.499120   6.834193
    26  H   12.547434  11.647876  10.004543   9.250137   7.499129
    27  H   14.043538  12.495479  11.572165  10.004532   9.166977
    28  H   15.038405  14.078030  12.495492  11.647875   9.990073
    29  H   16.536662  15.038391  14.043539  12.547422  11.601611
    30  H   17.235346  16.024432  14.701888  13.548017  12.206909
                   21         22         23         24         25
    21  H    0.000000
    22  H    3.144883   0.000000
    23  H    2.499624   3.107568   0.000000
    24  H    4.756034   2.499627   3.144883   0.000000
    25  H    5.000773   4.682503   2.501149   3.107292   0.000000
    26  H    6.917420   4.997977   4.757232   2.498351   3.146227
    27  H    7.506184   6.835225   5.006562   4.682368   2.505418
    28  H    9.247278   7.488926   6.916646   4.989313   4.758898
    29  H   10.049082   9.195882   7.549490   6.859766   5.048397
    30  H   11.072831   9.720701   8.610498   7.246137   6.176467
                   26         27         28         29         30
    26  H    0.000000
    27  H    3.106323   0.000000
    28  H    2.490981   3.148937   0.000000
    29  H    4.698422   2.543054   3.110088   0.000000
    30  H    4.799780   3.823130   2.473287   1.864881   0.000000
 Stoichiometry    C14H16
 Framework group  CS[SG(C14H16)]
 Deg. of freedom    57
 Full point group                 CS      NOp   2
 Largest Abelian subgroup         CS      NOp   2
 Largest concise Abelian subgroup C1      NOp   1
                         Standard orientation:                         
 ---------------------------------------------------------------------
 Center     Atomic      Atomic             Coordinates (Angstroms)
 Number     Number       Type             X           Y           Z
 ---------------------------------------------------------------------
      1          6           0        3.670756    7.218428    0.000000
      2          6           0        3.661486    5.869755    0.000000
      3          6           0        2.432967    5.051538    0.000000
      4          6           0        2.430133    3.686472    0.000000
      5          6           0        1.213646    2.870123    0.000000
      6          6           0        1.213124    1.500956    0.000000
      7          6           0        0.000000    0.685086    0.000000
      8          6           0       -0.000009   -0.685082    0.000000
      9          6           0       -1.213132   -1.500952    0.000000
     10          6           0       -1.213651   -2.870120    0.000000
     11          6           0       -2.430135   -3.686472    0.000000
     12          6           0       -2.432964   -5.051538    0.000000
     13          6           0       -3.661480   -5.869761    0.000000
     14          6           0       -3.670743   -7.218433    0.000000
     15          1           0        4.606078    7.790131    0.000000
     16          1           0        2.741227    7.800706    0.000000
     17          1           0        4.612891    5.316854    0.000000
     18          1           0        1.476227    5.594599    0.000000
     19          1           0        3.389175    3.147177    0.000000
     20          1           0        0.253750    3.407665    0.000000
     21          1           0        2.173652    0.964461    0.000000
     22          1           0       -0.960737    1.221165    0.000000
     23          1           0        0.960729   -1.221159    0.000000
     24          1           0       -2.173661   -0.964459    0.000000
     25          1           0       -0.253754   -3.407659    0.000000
     26          1           0       -3.389180   -3.147180    0.000000
     27          1           0       -1.476222   -5.594595    0.000000
     28          1           0       -4.612887   -5.316864    0.000000
     29          1           0       -2.741211   -7.800707    0.000000
     30          1           0       -4.606062   -7.790141    0.000000
 ---------------------------------------------------------------------
 Rotational constants (GHZ):     10.7561364      0.1056208      0.1045937
 Standard basis: STO-3G (5D, 7F)
 There are    72 symmetry adapted cartesian basis functions of A'  symmetry.
 There are    14 symmetry adapted cartesian basis functions of A"  symmetry.
 There are    72 symmetry adapted basis functions of A'  symmetry.
 There are    14 symmetry adapted basis functions of A"  symmetry.
    86 basis functions,   258 primitive gaussians,    86 cartesian basis functions
    50 alpha electrons       50 beta electrons
       nuclear repulsion energy       654.7585582417 Hartrees.
 NAtoms=   30 NActive=   30 NUniq=   30 SFac= 1.00D+00 NAtFMM=   60 NAOKFM=F Big=F
 Integral buffers will be    131072 words long.
 Raffenetti 2 integral format.
 Two-electron integral symmetry is turned on.
 One-electron integrals computed using PRISM.
 NBasis=    86 RedAO= T EigKep=  2.74D-01  NBF=    72    14
 NBsUse=    86 1.00D-06 EigRej= -1.00D+00 NBFU=    72    14
 ExpMin= 1.69D-01 ExpMax= 7.16D+01 ExpMxC= 7.16D+01 IAcc=1 IRadAn=         1 AccDes= 0.00D+00
 Harris functional with IExCor=  402 and IRadAn=       1 diagonalized for initial guess.
 HarFok:  IExCor=  402 AccDes= 0.00D+00 IRadAn=         1 IDoV= 1 UseB2=F ITyADJ=14
 ICtDFT=  3500011 ScaDFX=  1.000000  1.000000  1.000000  1.000000
 FoFCou: FMM=F IPFlag=           0 FMFlag=      100000 FMFlg1=           0
         NFxFlg=           0 DoJE=T BraDBF=F KetDBF=T FulRan=T
         wScrn=  0.000000 ICntrl=     500 IOpCl=  0 I1Cent=   200000004 NGrid=           0
         NMat0=    1 NMatS0=      1 NMatT0=    0 NMatD0=    1 NMtDS0=    0 NMtDT0=    0
 Petite list used in FoFCou.
 Initial guess orbital symmetries:
       Occupied  (A') (A') (A') (A') (A') (A') (A') (A') (A') (A')
                 (A') (A') (A') (A') (A') (A') (A') (A') (A') (A')
                 (A') (A') (A') (A') (A') (A') (A') (A') (A') (A')
                 (A') (A') (A') (A') (A') (A') (A') (A') (A') (A')
                 (A') (A') (A') (A") (A") (A") (A") (A") (A") (A")
       Virtual   (A") (A") (A") (A") (A") (A") (A") (A') (A') (A')
                 (A') (A') (A') (A') (A') (A') (A') (A') (A') (A')
                 (A') (A') (A') (A') (A') (A') (A') (A') (A') (A')
                 (A') (A') (A') (A') (A') (A')
 The electronic state of the initial guess is 1-A'.
 Keep R1 ints in memory in symmetry-blocked form, NReq=11294652.
 Requested convergence on RMS density matrix=1.00D-08 within 128 cycles.
 Requested convergence on MAX density matrix=1.00D-06.
 Requested convergence on             energy=1.00D-06.
 No special actions if energy rises.
 Integral accuracy reduced to 1.0D-05 until final iterations.
 Initial convergence to 1.0D-05 achieved.  Increase integral accuracy.
 SCF Done:  E(RB3LYP) =  -536.359427329     A.U. after   14 cycles
            NFock= 14  Conv=0.77D-08     -V/T= 2.0168

 **********************************************************************

            Population analysis using the SCF density.

 **********************************************************************

 Orbital symmetries:
       Occupied  (A') (A') (A') (A') (A') (A') (A') (A') (A') (A')
                 (A') (A') (A') (A') (A') (A') (A') (A') (A') (A')
                 (A') (A') (A') (A') (A') (A') (A') (A') (A') (A')
                 (A') (A') (A') (A') (A') (A') (A') (A') (A') (A')
                 (A') (A') (A") (A') (A") (A") (A") (A") (A") (A")
       Virtual   (A") (A") (A") (A") (A") (A") (A") (A') (A') (A')
                 (A') (A') (A') (A') (A') (A') (A') (A') (A') (A')
                 (A') (A') (A') (A') (A') (A') (A') (A') (A') (A')
                 (A') (A') (A') (A') (A') (A')
 The electronic state is 1-A'.
 Alpha  occ. eigenvalues --  -10.00834 -10.00834 -10.00770 -10.00756 -10.00740
 Alpha  occ. eigenvalues --  -10.00729 -10.00680 -10.00660 -10.00642 -10.00632
 Alpha  occ. eigenvalues --  -10.00575 -10.00575  -9.99167  -9.99167  -0.78003
 Alpha  occ. eigenvalues --   -0.77093  -0.75647  -0.73691  -0.71257  -0.68414
 Alpha  occ. eigenvalues --   -0.65375  -0.59345  -0.55865  -0.52657  -0.52357
 Alpha  occ. eigenvalues --   -0.51885  -0.50813  -0.50409  -0.43953  -0.43596
 Alpha  occ. eigenvalues --   -0.42249  -0.40794  -0.39850  -0.37699  -0.36577
 Alpha  occ. eigenvalues --   -0.35376  -0.33917  -0.33424  -0.32404  -0.32010
 Alpha  occ. eigenvalues --   -0.31104  -0.30174  -0.29927  -0.29341  -0.28662
 Alpha  occ. eigenvalues --   -0.26621  -0.23824  -0.20313  -0.16204  -0.11901
 Alpha virt. eigenvalues --    0.00066   0.04933   0.09958   0.14593   0.18517
 Alpha virt. eigenvalues --    0.21483   0.23322   0.30934   0.33320   0.36407
 Alpha virt. eigenvalues --    0.39139   0.40761   0.41397   0.41660   0.42712
 Alpha virt. eigenvalues --    0.42822   0.42873   0.42959   0.43030   0.43272
 Alpha virt. eigenvalues --    0.43514   0.43924   0.52218   0.52492   0.55559
 Alpha virt. eigenvalues --    0.56814   0.60852   0.61046   0.65163   0.65457
 Alpha virt. eigenvalues --    0.69002   0.69116   0.72243   0.74989   0.76898
 Alpha virt. eigenvalues --    0.77712
          Condensed to atoms (all electrons):
               1          2          3          4          5          6
     1  C    4.856442   0.579451  -0.027601   0.000687  -0.000006   0.000000
     2  C    0.579451   4.790000   0.426428  -0.026675   0.000812  -0.000006
     3  C   -0.027601   0.426428   4.818863   0.557846  -0.026980   0.000696
     4  C    0.000687  -0.026675   0.557846   4.809076   0.437529  -0.026938
     5  C   -0.000006   0.000812  -0.026980   0.437529   4.813820   0.552084
     6  C    0.000000  -0.000006   0.000696  -0.026938   0.552084   4.811311
     7  C    0.000000   0.000000  -0.000006   0.000815  -0.027020   0.440657
     8  C    0.000000   0.000000   0.000000  -0.000006   0.000701  -0.027007
     9  C    0.000000   0.000000   0.000000   0.000000  -0.000006   0.000815
    10  C    0.000000   0.000000   0.000000   0.000000   0.000000  -0.000006
    11  C    0.000000   0.000000   0.000000   0.000000   0.000000   0.000000
    12  C    0.000000   0.000000   0.000000   0.000000   0.000000   0.000000
    13  C    0.000000   0.000000   0.000000   0.000000   0.000000   0.000000
    14  C    0.000000   0.000000   0.000000   0.000000   0.000000   0.000000
    15  H    0.388067  -0.023831   0.001413  -0.000019   0.000000   0.000000
    16  H    0.386162  -0.024407  -0.004210   0.000025  -0.000001   0.000000
    17  H   -0.026787   0.385308  -0.025319  -0.003235   0.000003   0.000000
    18  H   -0.003080  -0.024622   0.384227  -0.026608  -0.004159   0.000024
    19  H    0.000027  -0.004219  -0.026730   0.384336  -0.024976  -0.003290
    20  H    0.000000   0.000004  -0.003264  -0.024896   0.384352  -0.026586
    21  H    0.000000  -0.000001   0.000025  -0.004169  -0.026625   0.384378
    22  H    0.000000   0.000000   0.000000   0.000005  -0.003304  -0.024981
    23  H    0.000000   0.000000   0.000000  -0.000001   0.000024  -0.004154
    24  H    0.000000   0.000000   0.000000   0.000000   0.000000   0.000005
    25  H    0.000000   0.000000   0.000000   0.000000   0.000000  -0.000001
    26  H    0.000000   0.000000   0.000000   0.000000   0.000000   0.000000
    27  H    0.000000   0.000000   0.000000   0.000000   0.000000   0.000000
    28  H    0.000000   0.000000   0.000000   0.000000   0.000000   0.000000
    29  H    0.000000   0.000000   0.000000   0.000000   0.000000   0.000000
    30  H    0.000000   0.000000   0.000000   0.000000   0.000000   0.000000
               7          8          9         10         11         12
     1  C    0.000000   0.000000   0.000000   0.000000   0.000000   0.000000
     2  C    0.000000   0.000000   0.000000   0.000000   0.000000   0.000000
     3  C   -0.000006   0.000000   0.000000   0.000000   0.000000   0.000000
     4  C    0.000815  -0.000006   0.000000   0.000000   0.000000   0.000000
     5  C   -0.027020   0.000701  -0.000006   0.000000   0.000000   0.000000
     6  C    0.440657  -0.027007   0.000815  -0.000006   0.000000   0.000000
     7  C    4.812481   0.550681  -0.027006   0.000701  -0.000006   0.000000
     8  C    0.550681   4.812481   0.440657  -0.027020   0.000815  -0.000006
     9  C   -0.027006   0.440657   4.811311   0.552084  -0.026938   0.000696
    10  C    0.000701  -0.027020   0.552084   4.813820   0.437529  -0.026980
    11  C   -0.000006   0.000815  -0.026938   0.437529   4.809076   0.557846
    12  C    0.000000  -0.000006   0.000696  -0.026980   0.557846   4.818863
    13  C    0.000000   0.000000  -0.000006   0.000812  -0.026675   0.426428
    14  C    0.000000   0.000000   0.000000  -0.000006   0.000687  -0.027601
    15  H    0.000000   0.000000   0.000000   0.000000   0.000000   0.000000
    16  H    0.000000   0.000000   0.000000   0.000000   0.000000   0.000000
    17  H    0.000000   0.000000   0.000000   0.000000   0.000000   0.000000
    18  H   -0.000001   0.000000   0.000000   0.000000   0.000000   0.000000
    19  H    0.000005   0.000000   0.000000   0.000000   0.000000   0.000000
    20  H   -0.004153   0.000024  -0.000001   0.000000   0.000000   0.000000
    21  H   -0.024999  -0.003309   0.000005   0.000000   0.000000   0.000000
    22  H    0.384372  -0.026592  -0.004154   0.000024  -0.000001   0.000000
    23  H   -0.026592   0.384372  -0.024981  -0.003304   0.000005   0.000000
    24  H   -0.003309  -0.024999   0.384378  -0.026625  -0.004169   0.000025
    25  H    0.000024  -0.004153  -0.026587   0.384352  -0.024896  -0.003264
    26  H    0.000000   0.000005  -0.003290  -0.024976   0.384336  -0.026730
    27  H    0.000000  -0.000001   0.000024  -0.004159  -0.026608   0.384227
    28  H    0.000000   0.000000   0.000000   0.000003  -0.003235  -0.025319
    29  H    0.000000   0.000000   0.000000  -0.000001   0.000025  -0.004210
    30  H    0.000000   0.000000   0.000000   0.000000  -0.000019   0.001413
              13         14         15         16         17         18
     1  C    0.000000   0.000000   0.388067   0.386162  -0.026787  -0.003080
     2  C    0.000000   0.000000  -0.023831  -0.024407   0.385308  -0.024622
     3  C    0.000000   0.000000   0.001413  -0.004210  -0.025319   0.384227
     4  C    0.000000   0.000000  -0.000019   0.000025  -0.003235  -0.026608
     5  C    0.000000   0.000000   0.000000  -0.000001   0.000003  -0.004159
     6  C    0.000000   0.000000   0.000000   0.000000   0.000000   0.000024
     7  C    0.000000   0.000000   0.000000   0.000000   0.000000  -0.000001
     8  C    0.000000   0.000000   0.000000   0.000000   0.000000   0.000000
     9  C   -0.000006   0.000000   0.000000   0.000000   0.000000   0.000000
    10  C    0.000812  -0.000006   0.000000   0.000000   0.000000   0.000000
    11  C   -0.026675   0.000687   0.000000   0.000000   0.000000   0.000000
    12  C    0.426428  -0.027601   0.000000   0.000000   0.000000   0.000000
    13  C    4.790000   0.579451   0.000000   0.000000   0.000000   0.000000
    14  C    0.579451   4.856442   0.000000   0.000000   0.000000   0.000000
    15  H    0.000000   0.000000   0.584155  -0.023567  -0.004628   0.000000
    16  H    0.000000   0.000000  -0.023567   0.586640   0.002005   0.000954
    17  H    0.000000   0.000000  -0.004628   0.002005   0.592543   0.001555
    18  H    0.000000   0.000000   0.000000   0.000954   0.001555   0.592386
    19  H    0.000000   0.000000  -0.000001   0.000001   0.001016   0.001970
    20  H    0.000000   0.000000   0.000000   0.000000   0.000000   0.000975
    21  H    0.000000   0.000000   0.000000   0.000000   0.000000   0.000001
    22  H    0.000000   0.000000   0.000000   0.000000   0.000000   0.000000
    23  H    0.000000   0.000000   0.000000   0.000000   0.000000   0.000000
    24  H   -0.000001   0.000000   0.000000   0.000000   0.000000   0.000000
    25  H    0.000004   0.000000   0.000000   0.000000   0.000000   0.000000
    26  H   -0.004219   0.000027   0.000000   0.000000   0.000000   0.000000
    27  H   -0.024622  -0.003080   0.000000   0.000000   0.000000   0.000000
    28  H    0.385308  -0.026787   0.000000   0.000000   0.000000   0.000000
    29  H   -0.024407   0.386162   0.000000   0.000000   0.000000   0.000000
    30  H   -0.023831   0.388067   0.000000   0.000000   0.000000   0.000000
              19         20         21         22         23         24
     1  C    0.000027   0.000000   0.000000   0.000000   0.000000   0.000000
     2  C   -0.004219   0.000004  -0.000001   0.000000   0.000000   0.000000
     3  C   -0.026730  -0.003264   0.000025   0.000000   0.000000   0.000000
     4  C    0.384336  -0.024896  -0.004169   0.000005  -0.000001   0.000000
     5  C   -0.024976   0.384352  -0.026625  -0.003304   0.000024   0.000000
     6  C   -0.003290  -0.026586   0.384378  -0.024981  -0.004154   0.000005
     7  C    0.000005  -0.004153  -0.024999   0.384372  -0.026592  -0.003309
     8  C    0.000000   0.000024  -0.003309  -0.026592   0.384372  -0.024999
     9  C    0.000000  -0.000001   0.000005  -0.004154  -0.024981   0.384378
    10  C    0.000000   0.000000   0.000000   0.000024  -0.003304  -0.026625
    11  C    0.000000   0.000000   0.000000  -0.000001   0.000005  -0.004169
    12  C    0.000000   0.000000   0.000000   0.000000   0.000000   0.000025
    13  C    0.000000   0.000000   0.000000   0.000000   0.000000  -0.000001
    14  C    0.000000   0.000000   0.000000   0.000000   0.000000   0.000000
    15  H   -0.000001   0.000000   0.000000   0.000000   0.000000   0.000000
    16  H    0.000001   0.000000   0.000000   0.000000   0.000000   0.000000
    17  H    0.001016   0.000000   0.000000   0.000000   0.000000   0.000000
    18  H    0.001970   0.000975   0.000001   0.000000   0.000000   0.000000
    19  H    0.592816   0.001582   0.000984   0.000000   0.000000   0.000000
    20  H    0.001582   0.592523   0.001956   0.000980   0.000001   0.000000
    21  H    0.000984   0.001956   0.592701   0.001593   0.000982   0.000000
    22  H    0.000000   0.000980   0.001593   0.592649   0.001952   0.000982
    23  H    0.000000   0.000001   0.000982   0.001952   0.592649   0.001593
    24  H    0.000000   0.000000   0.000000   0.000982   0.001593   0.592701
    25  H    0.000000   0.000000   0.000000   0.000001   0.000980   0.001956
    26  H    0.000000   0.000000   0.000000   0.000000   0.000000   0.000984
    27  H    0.000000   0.000000   0.000000   0.000000   0.000000   0.000001
    28  H    0.000000   0.000000   0.000000   0.000000   0.000000   0.000000
    29  H    0.000000   0.000000   0.000000   0.000000   0.000000   0.000000
    30  H    0.000000   0.000000   0.000000   0.000000   0.000000   0.000000
              25         26         27         28         29         30
     1  C    0.000000   0.000000   0.000000   0.000000   0.000000   0.000000
     2  C    0.000000   0.000000   0.000000   0.000000   0.000000   0.000000
     3  C    0.000000   0.000000   0.000000   0.000000   0.000000   0.000000
     4  C    0.000000   0.000000   0.000000   0.000000   0.000000   0.000000
     5  C    0.000000   0.000000   0.000000   0.000000   0.000000   0.000000
     6  C   -0.000001   0.000000   0.000000   0.000000   0.000000   0.000000
     7  C    0.000024   0.000000   0.000000   0.000000   0.000000   0.000000
     8  C   -0.004153   0.000005  -0.000001   0.000000   0.000000   0.000000
     9  C   -0.026587  -0.003290   0.000024   0.000000   0.000000   0.000000
    10  C    0.384352  -0.024976  -0.004159   0.000003  -0.000001   0.000000
    11  C   -0.024896   0.384336  -0.026608  -0.003235   0.000025  -0.000019
    12  C   -0.003264  -0.026730   0.384227  -0.025319  -0.004210   0.001413
    13  C    0.000004  -0.004219  -0.024622   0.385308  -0.024407  -0.023831
    14  C    0.000000   0.000027  -0.003080  -0.026787   0.386162   0.388067
    15  H    0.000000   0.000000   0.000000   0.000000   0.000000   0.000000
    16  H    0.000000   0.000000   0.000000   0.000000   0.000000   0.000000
    17  H    0.000000   0.000000   0.000000   0.000000   0.000000   0.000000
    18  H    0.000000   0.000000   0.000000   0.000000   0.000000   0.000000
    19  H    0.000000   0.000000   0.000000   0.000000   0.000000   0.000000
    20  H    0.000000   0.000000   0.000000   0.000000   0.000000   0.000000
    21  H    0.000000   0.000000   0.000000   0.000000   0.000000   0.000000
    22  H    0.000001   0.000000   0.000000   0.000000   0.000000   0.000000
    23  H    0.000980   0.000000   0.000000   0.000000   0.000000   0.000000
    24  H    0.001956   0.000984   0.000001   0.000000   0.000000   0.000000
    25  H    0.592523   0.001582   0.000975   0.000000   0.000000   0.000000
    26  H    0.001582   0.592816   0.001970   0.001016   0.000001  -0.000001
    27  H    0.000975   0.001970   0.592386   0.001555   0.000954   0.000000
    28  H    0.000000   0.001016   0.001555   0.592543   0.002005  -0.004628
    29  H    0.000000   0.000001   0.000954   0.002005   0.586640  -0.023567
    30  H    0.000000  -0.000001   0.000000  -0.004628  -0.023567   0.584155
 Mulliken charges:
               1
     1  C   -0.153361
     2  C   -0.078243
     3  C   -0.075388
     4  C   -0.077773
     5  C   -0.076251
     6  C   -0.077002
     7  C   -0.076644
     8  C   -0.076644
     9  C   -0.077002
    10  C   -0.076251
    11  C   -0.077773
    12  C   -0.075388
    13  C   -0.078243
    14  C   -0.153361
    15  H    0.078411
    16  H    0.076399
    17  H    0.077539
    18  H    0.076378
    19  H    0.076479
    20  H    0.076505
    21  H    0.076479
    22  H    0.076473
    23  H    0.076473
    24  H    0.076479
    25  H    0.076505
    26  H    0.076479
    27  H    0.076378
    28  H    0.077539
    29  H    0.076399
    30  H    0.078411
 Sum of Mulliken charges =   0.00000
 Mulliken charges with hydrogens summed into heavy atoms:
               1
     1  C    0.001449
     2  C   -0.000704
     3  C    0.000990
     4  C   -0.001294
     5  C    0.000254
     6  C   -0.000524
     7  C   -0.000171
     8  C   -0.000171
     9  C   -0.000524
    10  C    0.000254
    11  C   -0.001294
    12  C    0.000990
    13  C   -0.000704
    14  C    0.001449
 Electronic spatial extent (au):  <R**2>=           9769.1828
 Charge=              0.0000 electrons
 Dipole moment (field-independent basis, Debye):
    X=              0.0000    Y=              0.0000    Z=              0.0000  Tot=              0.0000
 Quadrupole moment (field-independent basis, Debye-Ang):
   XX=            -71.9800   YY=            -72.0998   ZZ=            -83.8382
   XY=             -0.4246   XZ=              0.0000   YZ=              0.0000
 Traceless Quadrupole moment (field-independent basis, Debye-Ang):
   XX=              3.9927   YY=              3.8729   ZZ=             -7.8656
   XY=             -0.4246   XZ=              0.0000   YZ=              0.0000
 Octapole moment (field-independent basis, Debye-Ang**2):
  XXX=              0.0000  YYY=             -0.0002  ZZZ=              0.0000  XYY=             -0.0001
  XXY=             -0.0001  XXZ=              0.0000  XZZ=              0.0000  YZZ=              0.0000
  YYZ=              0.0000  XYZ=              0.0000
 Hexadecapole moment (field-independent basis, Debye-Ang**3):
 XXXX=          -2816.4740 YYYY=          -8992.9773 ZZZZ=            -68.0283 XXXY=          -2383.8958
 XXXZ=              0.0000 YYYX=          -2409.0954 YYYZ=              0.0000 ZZZX=              0.0000
 ZZZY=              0.0000 XXYY=          -1960.9137 XXZZ=           -557.6387 YYZZ=          -1741.8399
 XXYZ=              0.0000 YYXZ=              0.0000 ZZXY=           -923.3275
 N-N= 6.547585582417D+02 E-N=-2.550469896167D+03  KE= 5.275097616485D+02
 Symmetry A'   KE= 5.098907785031D+02
 Symmetry A"   KE= 1.761898314539D+01
 Calling FoFJK, ICntrl=      2127 FMM=F ISym2X=1 I1Cent= 0 IOpClX= 0 NMat=1 NMatS=1 NMatT=0.
 ***** Axes restored to original set *****
 -------------------------------------------------------------------
 Center     Atomic                   Forces (Hartrees/Bohr)
 Number     Number              X              Y              Z
 -------------------------------------------------------------------
      1        6          -0.000004826   -0.000001626    0.000001390
      2        6           0.000025283   -0.000005085    0.000008375
      3        6          -0.000031236    0.000027884   -0.000035210
      4        6           0.000032276   -0.000029668    0.000037368
      5        6          -0.000032344    0.000032297   -0.000040400
      6        6           0.000032621   -0.000032618    0.000040797
      7        6          -0.000032671    0.000033218   -0.000041493
      8        6           0.000032653   -0.000033212    0.000041484
      9        6          -0.000032610    0.000032626   -0.000040806
     10        6           0.000032314   -0.000032304    0.000040406
     11        6          -0.000032232    0.000029704   -0.000037405
     12        6           0.000031274   -0.000027875    0.000035204
     13        6          -0.000025284    0.000005132   -0.000008430
     14        6           0.000004794    0.000001571   -0.000001330
     15        1          -0.000007569    0.000003108   -0.000004332
     16        1           0.000000210   -0.000002563    0.000002971
     17        1          -0.000017919   -0.000008321    0.000007790
     18        1          -0.000002591    0.000001264   -0.000001714
     19        1          -0.000001488   -0.000002561    0.000002799
     20        1          -0.000001787    0.000000056   -0.000000243
     21        1           0.000001584   -0.000000445    0.000000670
     22        1          -0.000002207    0.000000032   -0.000000257
     23        1           0.000002206   -0.000000042    0.000000268
     24        1          -0.000001592    0.000000436   -0.000000660
     25        1           0.000001784   -0.000000058    0.000000245
     26        1           0.000001480    0.000002546   -0.000002782
     27        1           0.000002602   -0.000001277    0.000001729
     28        1           0.000017899    0.000008328   -0.000007800
     29        1          -0.000000192    0.000002563   -0.000002969
     30        1           0.000007569   -0.000003111    0.000004335
 -------------------------------------------------------------------
 Cartesian Forces:  Max     0.000041493 RMS     0.000020587

 GradGradGradGradGradGradGradGradGradGradGradGradGradGradGradGradGradGrad
 Berny optimization.
 FormGI is forming the generalized inverse of G from B-inverse, IUseBI=4.
 Internal  Forces:  Max     0.000054385 RMS     0.000014300
 Search for a local minimum.
 Step number   1 out of a maximum of  133
 All quantities printed in internal units (Hartrees-Bohrs-Radians)
 Mixed Optimization -- En-DIIS/RFO-DIIS
 Second derivative matrix not updated -- first step.
 ITU=  0
     Eigenvalues ---    0.01083   0.01083   0.01229   0.01229   0.01269
     Eigenvalues ---    0.01269   0.01835   0.01835   0.01876   0.01876
     Eigenvalues ---    0.01889   0.01889   0.01896   0.01896   0.01905
     Eigenvalues ---    0.01905   0.01953   0.01953   0.02483   0.02497
     Eigenvalues ---    0.02497   0.02551   0.02551   0.02767   0.02767
     Eigenvalues ---    0.02767   0.02767   0.16000   0.16000   0.16000
     Eigenvalues ---    0.16000   0.16000   0.16000   0.16000   0.16000
     Eigenvalues ---    0.16000   0.16000   0.16000   0.16000   0.16000
     Eigenvalues ---    0.16000   0.16000   0.16000   0.22000   0.22000
     Eigenvalues ---    0.22000   0.22000   0.22000   0.22000   0.22000
     Eigenvalues ---    0.22000   0.22000   0.22000   0.22000   0.22000
     Eigenvalues ---    0.33638   0.33638   0.33652   0.33652   0.33660
     Eigenvalues ---    0.33660   0.33662   0.33662   0.33664   0.33664
     Eigenvalues ---    0.33669   0.33669   0.34033   0.34033   0.34105
     Eigenvalues ---    0.34105   0.35025   0.35025   0.36344   0.36344
     Eigenvalues ---    0.36721   0.36721   0.50944   0.51137   0.51137
     Eigenvalues ---    0.51936   0.51936   0.55298   0.55298
 RFO step:  Lambda=-1.17033110D-07 EMin= 1.08268734D-02
 Linear search not attempted -- first point.
 Iteration  1 RMS(Cart)=  0.00037148 RMS(Int)=  0.00000003
 Iteration  2 RMS(Cart)=  0.00000006 RMS(Int)=  0.00000001
 ClnCor:  largest displacement from symmetrization is 6.90D-08 for atom    30.
 Variable       Old X    -DE/DX   Delta X   Delta X   Delta X     New X
                                 (Linear)    (Quad)   (Total)
    R1        2.54868   0.00001   0.00000   0.00001   0.00001   2.54869
    R2        2.07153   0.00001   0.00000   0.00002   0.00002   2.07155
    R3        2.07274   0.00000   0.00000   0.00001   0.00001   2.07275
    R4        2.78934   0.00001   0.00000   0.00002   0.00002   2.78936
    R5        2.07945   0.00000   0.00000   0.00000   0.00000   2.07945
    R6        2.57961   0.00000   0.00000  -0.00001  -0.00001   2.57960
    R7        2.07893   0.00000   0.00000  -0.00001  -0.00001   2.07892
    R8        2.76847   0.00001   0.00000   0.00002   0.00002   2.76850
    R9        2.07922   0.00000   0.00000  -0.00001  -0.00001   2.07921
   R10        2.58735   0.00000   0.00000   0.00000   0.00000   2.58735
   R11        2.07900   0.00000   0.00000   0.00000   0.00000   2.07900
   R12        2.76270   0.00001   0.00000   0.00002   0.00002   2.76272
   R13        2.07908   0.00000   0.00000  -0.00001  -0.00001   2.07907
   R14        2.58924   0.00000   0.00000   0.00000   0.00000   2.58924
   R15        2.07904   0.00000   0.00000   0.00000   0.00000   2.07903
   R16        2.76270   0.00001   0.00000   0.00002   0.00002   2.76272
   R17        2.07904   0.00000   0.00000   0.00000   0.00000   2.07903
   R18        2.58735   0.00000   0.00000   0.00000   0.00000   2.58735
   R19        2.07908   0.00000   0.00000  -0.00001  -0.00001   2.07907
   R20        2.76847   0.00001   0.00000   0.00002   0.00002   2.76850
   R21        2.07900   0.00000   0.00000   0.00000   0.00000   2.07900
   R22        2.57961   0.00000   0.00000  -0.00001  -0.00001   2.57960
   R23        2.07922   0.00000   0.00000  -0.00001  -0.00001   2.07921
   R24        2.78934   0.00001   0.00000   0.00002   0.00002   2.78936
   R25        2.07893   0.00000   0.00000  -0.00001  -0.00001   2.07892
   R26        2.54868   0.00001   0.00000   0.00001   0.00001   2.54869
   R27        2.07945   0.00000   0.00000   0.00000   0.00000   2.07945
   R28        2.07274   0.00000   0.00000   0.00001   0.00001   2.07275
   R29        2.07153   0.00001   0.00000   0.00002   0.00002   2.07155
    A1        2.12631  -0.00001   0.00000  -0.00005  -0.00005   2.12626
    A2        2.12354   0.00001   0.00000   0.00004   0.00004   2.12358
    A3        2.03333   0.00000   0.00000   0.00001   0.00001   2.03334
    A4        2.16522   0.00001   0.00000   0.00003   0.00003   2.16526
    A5        2.09036  -0.00003   0.00000  -0.00016  -0.00016   2.09021
    A6        2.02760   0.00002   0.00000   0.00012   0.00012   2.02772
    A7        2.16043   0.00005   0.00000   0.00025   0.00025   2.16067
    A8        2.03777  -0.00003   0.00000  -0.00013  -0.00013   2.03764
    A9        2.08499  -0.00003   0.00000  -0.00012  -0.00012   2.08487
   A10        2.16392   0.00001   0.00000   0.00006   0.00006   2.16397
   A11        2.08098  -0.00001   0.00000  -0.00005  -0.00005   2.08093
   A12        2.03829   0.00000   0.00000   0.00000   0.00000   2.03829
   A13        2.16222   0.00005   0.00000   0.00022   0.00022   2.16244
   A14        2.04006  -0.00003   0.00000  -0.00012  -0.00012   2.03994
   A15        2.08090  -0.00002   0.00000  -0.00010  -0.00010   2.08080
   A16        2.16323   0.00002   0.00000   0.00011   0.00011   2.16334
   A17        2.07979  -0.00001   0.00000  -0.00005  -0.00005   2.07974
   A18        2.04016  -0.00001   0.00000  -0.00006  -0.00006   2.04010
   A19        2.16286   0.00004   0.00000   0.00017   0.00017   2.16303
   A20        2.04058  -0.00002   0.00000  -0.00009  -0.00009   2.04049
   A21        2.07974  -0.00002   0.00000  -0.00007  -0.00007   2.07967
   A22        2.16286   0.00004   0.00000   0.00017   0.00017   2.16303
   A23        2.07974  -0.00002   0.00000  -0.00007  -0.00007   2.07967
   A24        2.04058  -0.00002   0.00000  -0.00009  -0.00009   2.04049
   A25        2.16323   0.00002   0.00000   0.00011   0.00011   2.16334
   A26        2.04016  -0.00001   0.00000  -0.00006  -0.00006   2.04010
   A27        2.07979  -0.00001   0.00000  -0.00005  -0.00005   2.07974
   A28        2.16222   0.00005   0.00000   0.00022   0.00022   2.16244
   A29        2.08090  -0.00002   0.00000  -0.00010  -0.00010   2.08080
   A30        2.04006  -0.00003   0.00000  -0.00012  -0.00012   2.03994
   A31        2.16392   0.00001   0.00000   0.00006   0.00006   2.16397
   A32        2.03829   0.00000   0.00000   0.00000   0.00000   2.03829
   A33        2.08098  -0.00001   0.00000  -0.00005  -0.00005   2.08093
   A34        2.16043   0.00005   0.00000   0.00025   0.00025   2.16067
   A35        2.08499  -0.00003   0.00000  -0.00012  -0.00012   2.08487
   A36        2.03777  -0.00003   0.00000  -0.00013  -0.00013   2.03764
   A37        2.16522   0.00001   0.00000   0.00003   0.00003   2.16526
   A38        2.02760   0.00002   0.00000   0.00012   0.00012   2.02772
   A39        2.09036  -0.00003   0.00000  -0.00016  -0.00016   2.09021
   A40        2.12354   0.00001   0.00000   0.00004   0.00004   2.12358
   A41        2.12631  -0.00001   0.00000  -0.00005  -0.00005   2.12626
   A42        2.03333   0.00000   0.00000   0.00001   0.00001   2.03334
    D1        3.14159   0.00000   0.00000   0.00000   0.00000   3.14159
    D2        0.00000   0.00000   0.00000   0.00000   0.00000   0.00000
    D3        0.00000   0.00000   0.00000   0.00000   0.00000   0.00000
    D4        3.14159   0.00000   0.00000   0.00000   0.00000   3.14159
    D5        3.14159   0.00000   0.00000   0.00000   0.00000   3.14159
    D6        0.00000   0.00000   0.00000   0.00000   0.00000   0.00000
    D7        0.00000   0.00000   0.00000   0.00000   0.00000   0.00000
    D8        3.14159   0.00000   0.00000   0.00000   0.00000   3.14159
    D9        3.14159   0.00000   0.00000   0.00000   0.00000   3.14159
   D10        0.00000   0.00000   0.00000   0.00000   0.00000   0.00000
   D11        0.00000   0.00000   0.00000   0.00000   0.00000   0.00000
   D12        3.14159   0.00000   0.00000   0.00000   0.00000   3.14159
   D13        3.14159   0.00000   0.00000   0.00000   0.00000   3.14159
   D14        0.00000   0.00000   0.00000   0.00000   0.00000   0.00000
   D15        0.00000   0.00000   0.00000   0.00000   0.00000   0.00000
   D16       -3.14159   0.00000   0.00000   0.00000   0.00000   3.14159
   D17        3.14159   0.00000   0.00000   0.00000   0.00000  -3.14159
   D18        0.00000   0.00000   0.00000   0.00000   0.00000   0.00000
   D19        0.00000   0.00000   0.00000   0.00000   0.00000   0.00000
   D20        3.14159   0.00000   0.00000   0.00000   0.00000   3.14159
   D21        3.14159   0.00000   0.00000   0.00000   0.00000   3.14159
   D22        0.00000   0.00000   0.00000   0.00000   0.00000   0.00000
   D23        0.00000   0.00000   0.00000   0.00000   0.00000   0.00000
   D24       -3.14159   0.00000   0.00000   0.00000   0.00000   3.14159
   D25        3.14159   0.00000   0.00000   0.00000   0.00000   3.14159
   D26        0.00000   0.00000   0.00000   0.00000   0.00000   0.00000
   D27        0.00000   0.00000   0.00000   0.00000   0.00000   0.00000
   D28        3.14159   0.00000   0.00000   0.00000   0.00000   3.14159
   D29        3.14159   0.00000   0.00000   0.00000   0.00000   3.14159
   D30        0.00000   0.00000   0.00000   0.00000   0.00000   0.00000
   D31        0.00000   0.00000   0.00000   0.00000   0.00000   0.00000
   D32        3.14159   0.00000   0.00000   0.00000   0.00000   3.14159
   D33        3.14159   0.00000   0.00000   0.00000   0.00000   3.14159
   D34        0.00000   0.00000   0.00000   0.00000   0.00000   0.00000
   D35        0.00000   0.00000   0.00000   0.00000   0.00000   0.00000
   D36        3.14159   0.00000   0.00000   0.00000   0.00000   3.14159
   D37        3.14159   0.00000   0.00000   0.00000   0.00000   3.14159
   D38        0.00000   0.00000   0.00000   0.00000   0.00000   0.00000
   D39        0.00000   0.00000   0.00000   0.00000   0.00000   0.00000
   D40        3.14159   0.00000   0.00000   0.00000   0.00000   3.14159
   D41        3.14159   0.00000   0.00000   0.00000   0.00000   3.14159
   D42        0.00000   0.00000   0.00000   0.00000   0.00000   0.00000
   D43        0.00000   0.00000   0.00000   0.00000   0.00000   0.00000
   D44        3.14159   0.00000   0.00000   0.00000   0.00000   3.14159
   D45        3.14159   0.00000   0.00000   0.00000   0.00000   3.14159
   D46        0.00000   0.00000   0.00000   0.00000   0.00000   0.00000
   D47        0.00000   0.00000   0.00000   0.00000   0.00000   0.00000
   D48        3.14159   0.00000   0.00000   0.00000   0.00000   3.14159
   D49        0.00000   0.00000   0.00000   0.00000   0.00000   0.00000
   D50        3.14159   0.00000   0.00000   0.00000   0.00000  -3.14159
   D51        3.14159   0.00000   0.00000   0.00000   0.00000   3.14159
   D52        0.00000   0.00000   0.00000   0.00000   0.00000   0.00000
         Item               Value     Threshold  Converged?
 Maximum Force            0.000054     0.000015     NO 
 RMS     Force            0.000014     0.000010     NO 
 Maximum Displacement     0.001201     0.000060     NO 
 RMS     Displacement     0.000371     0.000040     NO 
 Predicted change in Energy=-5.851656D-08
 GradGradGradGradGradGradGradGradGradGradGradGradGradGradGradGradGradGrad

                          Input orientation:                          
 ---------------------------------------------------------------------
 Center     Atomic      Atomic             Coordinates (Angstroms)
 Number     Number       Type             X           Y           Z
 ---------------------------------------------------------------------
      1          6           0        1.104715   -0.348153   -0.205216
      2          6           0        1.692437    0.476632   -1.095909
      3          6           0        3.150415    0.686163   -1.191630
      4          6           0        3.739641    1.522456   -2.095417
      5          6           0        5.186022    1.733523   -2.194064
      6          6           0        5.775132    2.572829   -3.101330
      7          6           0        7.218302    2.784300   -3.200763
      8          6           0        7.807450    3.624323   -4.108851
      9          6           0        9.250620    3.835795   -4.208285
     10          6           0        9.839728    4.675101   -5.115551
     11          6           0       11.286109    4.886170   -5.214199
     12          6           0       11.875334    5.722463   -6.117987
     13          6           0       13.333311    5.931995   -6.213711
     14          6           0       13.921031    6.756782   -7.104404
     15          1           0        0.016694   -0.476199   -0.166377
     16          1           0        1.691739   -0.926319    0.518810
     17          1           0        1.072920    1.041899   -1.808330
     18          1           0        3.778736    0.125551   -0.483687
     19          1           0        3.107689    2.081338   -2.801731
     20          1           0        5.819398    1.175459   -1.488551
     21          1           0        5.140785    3.130424   -3.806401
     22          1           0        7.852986    2.226895   -2.495877
     23          1           0        7.172765    4.181729   -4.813738
     24          1           0        9.884967    3.278201   -3.503214
     25          1           0        9.206352    5.233165   -5.821064
     26          1           0       11.918062    4.327288   -4.507886
     27          1           0       11.247012    6.283075   -6.825929
     28          1           0       13.952830    5.366730   -5.501291
     29          1           0       13.334005    7.334947   -7.828430
     30          1           0       15.009052    6.884829   -7.143245
 ---------------------------------------------------------------------
                    Distance matrix (angstroms):
                    1          2          3          4          5
     1  C    0.000000
     2  C    1.348711   0.000000
     3  C    2.495538   1.476064   0.000000
     4  C    3.743645   2.506753   1.365066   0.000000
     5  C    4.994593   3.871803   2.499107   1.465025   0.000000
     6  C    6.223537   5.008408   3.754411   2.501673   1.369166
     7  C    7.494099   6.347513   4.998650   3.862010   2.499547
     8  C    8.714677   7.508606   6.231448   5.001883   3.756783
     9  C    9.994286   8.837250   7.498859   6.339292   4.999758
    10  C   11.209146  10.008148   8.720992   7.501429   6.232572
    11  C   12.495953  11.333264  10.000532   8.831226   7.501430
    12  C   13.704725  12.507254  11.214166  10.000531   8.720992
    13  C   15.002694  13.837009  12.507255  11.333264  10.008149
    14  C   16.196816  15.002693  13.704725  12.495952  11.209146
    15  H    1.096218   2.140101   3.496060   4.645014   5.976315
    16  H    1.096854   2.139063   2.766485   4.126086   5.161827
    17  H    2.122081   1.100396   2.196099   2.724841   4.188645
    18  H    2.729895   2.202433   1.100116   2.133201   2.737046
    19  H    4.081204   2.736394   2.130907   1.100269   2.193103
    20  H    5.118259   4.204085   2.729660   2.194101   1.100159
    21  H    6.431088   5.126449   4.095487   2.734269   2.133778
    22  H    7.577412   6.555585   5.117528   4.192399   2.728957
    23  H    8.864510   7.588412   6.443442   5.123216   4.099213
    24  H   10.055848   8.986738   7.577353   6.544430   5.116638
    25  H   11.328080  10.070284   8.875881   7.585165   6.447145
    26  H   12.541978  11.446945  10.056191   8.976283   7.576394
    27  H   13.808447  12.563352  11.341324  10.069848   8.881902
    28  H   15.026056  13.915376  12.536868  11.431870  10.049620
    29  H   16.330920  15.096006  13.854925  12.597789  11.380318
    30  H   17.140095  15.967701  14.644878  13.462363  12.145874
                    6          7          8          9         10
     6  C    0.000000
     7  C    1.461966   0.000000
     8  C    2.500211   1.370167   0.000000
     9  C    3.859980   2.500211   1.461966   0.000000
    10  C    4.999758   3.756783   2.499547   1.369166   0.000000
    11  C    6.339292   5.001883   3.862010   2.501673   1.465025
    12  C    7.498858   6.231448   4.998649   3.754411   2.499106
    13  C    8.837249   7.508607   6.347513   5.008409   3.871803
    14  C    9.994285   8.714677   7.494098   6.223537   4.994593
    15  H    7.146337   8.467675   9.646412  10.963380  12.145873
    16  H    6.482558   7.625406   8.917708  10.107415  11.380319
    17  H    5.111399   6.537626   7.570681   8.968858  10.049618
    18  H    4.102051   5.126604   6.450873   7.588152   8.881904
    19  H    2.728841   4.189334   5.116358   6.541567   7.576392
    20  H    2.134399   2.734406   4.100642   5.123244   6.447146
    21  H    1.100197   2.191500   2.728830   4.189248   5.116637
    22  H    2.191740   1.100178   2.134612   2.733913   4.099214
    23  H    2.733913   2.134612   1.100178   2.191740   2.728956
    24  H    4.189249   2.728831   2.191501   1.100197   2.133778
    25  H    5.123242   4.100641   2.734405   2.134399   1.100159
    26  H    6.541568   5.116359   4.189334   2.728842   2.193103
    27  H    7.588150   6.450872   5.126603   4.102051   2.737045
    28  H    8.968859   7.570683   6.537627   5.111400   4.188645
    29  H   10.107413   8.917707   7.625405   6.482557   5.161827
    30  H   10.963380   9.646413   8.467674   7.146338   5.976315
                   11         12         13         14         15
    11  C    0.000000
    12  C    1.365066   0.000000
    13  C    2.506753   1.476064   0.000000
    14  C    3.743645   2.495538   1.348711   0.000000
    15  H   13.462363  14.644877  15.967702  17.140094   0.000000
    16  H   12.597792  13.854926  15.096010  16.330922   1.864904
    17  H   11.431868  12.536865  13.915374  15.026053   2.473104
    18  H   10.069851  11.341326  12.563355  13.808449   3.823055
    19  H    8.976281  10.056189  11.446943  12.541975   4.800036
    20  H    7.585167   8.875882  10.070286  11.328082   6.176366
    21  H    6.544429   7.577351   8.986736  10.055845   7.246642
    22  H    5.123217   6.443443   7.588414   8.864512   8.610503
    23  H    4.192398   5.117527   6.555584   7.577410   9.721297
    24  H    2.734270   4.095487   5.126450   6.431089  11.073067
    25  H    2.194101   2.729659   4.204084   5.118258  12.207463
    26  H    1.100269   2.130907   2.736394   4.081204  13.548607
    27  H    2.133201   1.100116   2.202433   2.729895  14.702294
    28  H    2.724841   2.196099   1.100396   2.122081  16.025512
    29  H    4.126086   2.766485   2.139063   1.096854  17.235772
    30  H    4.645014   3.496060   2.140101   1.096218  18.100614
                   16         17         18         19         20
    16  H    0.000000
    17  H    3.110048   0.000000
    18  H    2.543027   3.148938   0.000000
    19  H    4.698608   2.491499   3.106241   0.000000
    20  H    5.048221   4.759112   2.505267   3.146176   0.000000
    21  H    6.860068   4.990166   4.682400   2.498684   3.107223
    22  H    7.549309   6.917098   5.006403   4.757371   2.501141
    23  H    9.196188   7.489935   6.835302   4.998465   4.682535
    24  H   10.049062   9.248019   7.506185   6.917807   5.000925
    25  H   11.601839   9.991070   9.167024   7.499604   6.834260
    26  H   12.547739  11.648970  10.004869   9.250834   7.499608
    27  H   14.043639  12.496335  11.572134  10.004865   9.167025
    28  H   15.039230  14.079567  12.496340  11.648970   9.991074
    29  H   16.536846  15.039224  14.043639  12.547734  11.601839
    30  H   17.235775  16.025509  14.702298  13.548605  12.207465
                   21         22         23         24         25
    21  H    0.000000
    22  H    3.144817   0.000000
    23  H    2.499783   3.107500   0.000000
    24  H    4.756157   2.499784   3.144817   0.000000
    25  H    5.000922   4.682535   2.501140   3.107223   0.000000
    26  H    6.917807   4.998467   4.757371   2.498685   3.146176
    27  H    7.506182   6.835303   5.006401   4.682400   2.505266
    28  H    9.248019   7.489938   6.917097   4.990168   4.759112
    29  H   10.049059   9.196188   7.549306   6.860068   5.048220
    30  H   11.073065   9.721299   8.610502   7.246643   6.176365
                   26         27         28         29         30
    26  H    0.000000
    27  H    3.106241   0.000000
    28  H    2.491500   3.148938   0.000000
    29  H    4.698608   2.543026   3.110048   0.000000
    30  H    4.800036   3.823054   2.473104   1.864904   0.000000
 Stoichiometry    C14H16
 Framework group  CS[SG(C14H16)]
 Deg. of freedom    57
 Full point group                 CS      NOp   2
 Largest Abelian subgroup         CS      NOp   2
 Largest concise Abelian subgroup C1      NOp   1
                         Standard orientation:                         
 ---------------------------------------------------------------------
 Center     Atomic      Atomic             Coordinates (Angstroms)
 Number     Number       Type             X           Y           Z
 ---------------------------------------------------------------------
      1          6           0        3.669009    7.219598    0.000000
      2          6           0        3.660336    5.870915    0.000000
      3          6           0        2.432201    5.052107    0.000000
      4          6           0        2.429680    3.687043    0.000000
      5          6           0        1.213417    2.870341    0.000000
      6          6           0        1.212985    1.501175    0.000000
      7          6           0       -0.000004    0.685085    0.000000
      8          6           0        0.000000   -0.685083    0.000000
      9          6           0       -1.212989   -1.501173    0.000000
     10          6           0       -1.213419   -2.870340    0.000000
     11          6           0       -2.429681   -3.687043    0.000000
     12          6           0       -2.432199   -5.052107    0.000000
     13          6           0       -3.660334   -5.870917    0.000000
     14          6           0       -3.669003   -7.219600    0.000000
     15          1           0        4.604114    7.791674    0.000000
     16          1           0        2.739236    7.801501    0.000000
     17          1           0        4.612073    5.318583    0.000000
     18          1           0        1.475275    5.594832    0.000000
     19          1           0        3.388870    3.148020    0.000000
     20          1           0        0.253431    3.407720    0.000000
     21          1           0        2.173573    0.964794    0.000000
     22          1           0       -0.960783    1.221082    0.000000
     23          1           0        0.960780   -1.221080    0.000000
     24          1           0       -2.173577   -0.964794    0.000000
     25          1           0       -0.253433   -3.407718    0.000000
     26          1           0       -3.388872   -3.148021    0.000000
     27          1           0       -1.475274   -5.594830    0.000000
     28          1           0       -4.612071   -5.318587    0.000000
     29          1           0       -2.739230   -7.801501    0.000000
     30          1           0       -4.604108   -7.791678    0.000000
 ---------------------------------------------------------------------
 Rotational constants (GHZ):     10.7564242      0.1056122      0.1045853
 Standard basis: STO-3G (5D, 7F)
 There are    72 symmetry adapted cartesian basis functions of A'  symmetry.
 There are    14 symmetry adapted cartesian basis functions of A"  symmetry.
 There are    72 symmetry adapted basis functions of A'  symmetry.
 There are    14 symmetry adapted basis functions of A"  symmetry.
    86 basis functions,   258 primitive gaussians,    86 cartesian basis functions
    50 alpha electrons       50 beta electrons
       nuclear repulsion energy       654.7432339954 Hartrees.
 NAtoms=   30 NActive=   30 NUniq=   30 SFac= 1.00D+00 NAtFMM=   60 NAOKFM=F Big=F
 Integral buffers will be    131072 words long.
 Raffenetti 2 integral format.
 Two-electron integral symmetry is turned on.
 One-electron integrals computed using PRISM.
 NBasis=    86 RedAO= T EigKep=  2.74D-01  NBF=    72    14
 NBsUse=    86 1.00D-06 EigRej= -1.00D+00 NBFU=    72    14
 Initial guess from the checkpoint file:  "/data/trash/Gau-5492.chk"
 B after Tr=     0.000000    0.000000    0.000000
         Rot=    1.000000    0.000000    0.000000   -0.000108 Ang=  -0.01 deg.
 Initial guess orbital symmetries:
       Occupied  (A') (A') (A') (A') (A') (A') (A') (A') (A') (A')
                 (A') (A') (A') (A') (A') (A') (A') (A') (A') (A')
                 (A') (A') (A') (A') (A') (A') (A') (A') (A') (A')
                 (A') (A') (A') (A') (A') (A') (A') (A') (A') (A')
                 (A') (A') (A") (A') (A") (A") (A") (A") (A") (A")
       Virtual   (A') (A') (A') (A') (A') (A') (A') (A') (A') (A')
                 (A') (A') (A') (A') (A') (A') (A') (A') (A') (A')
                 (A') (A') (A') (A') (A') (A') (A') (A') (A') (A")
                 (A") (A") (A") (A") (A") (A")
 Keep R1 ints in memory in symmetry-blocked form, NReq=11294652.
 Requested convergence on RMS density matrix=1.00D-08 within 128 cycles.
 Requested convergence on MAX density matrix=1.00D-06.
 Requested convergence on             energy=1.00D-06.
 No special actions if energy rises.
 SCF Done:  E(RB3LYP) =  -536.359427341     A.U. after    6 cycles
            NFock=  6  Conv=0.72D-08     -V/T= 2.0168
 Calling FoFJK, ICntrl=      2127 FMM=F ISym2X=1 I1Cent= 0 IOpClX= 0 NMat=1 NMatS=1 NMatT=0.
 ***** Axes restored to original set *****
 -------------------------------------------------------------------
 Center     Atomic                   Forces (Hartrees/Bohr)
 Number     Number              X              Y              Z
 -------------------------------------------------------------------
      1        6           0.000002876   -0.000002017    0.000002609
      2        6           0.000013408    0.000003711   -0.000002933
      3        6          -0.000009261    0.000008207   -0.000010371
      4        6           0.000006961   -0.000004326    0.000005674
      5        6          -0.000004913    0.000007866   -0.000009544
      6        6           0.000004036   -0.000006772    0.000008197
      7        6          -0.000003859    0.000007624   -0.000009161
      8        6           0.000003861   -0.000007621    0.000009157
      9        6          -0.000004027    0.000006783   -0.000008209
     10        6           0.000004906   -0.000007871    0.000009548
     11        6          -0.000006955    0.000004336   -0.000005684
     12        6           0.000009253   -0.000008217    0.000010381
     13        6          -0.000013414   -0.000003710    0.000002932
     14        6          -0.000002864    0.000002020   -0.000002611
     15        1           0.000000577    0.000002267   -0.000002552
     16        1          -0.000002292    0.000000157   -0.000000409
     17        1          -0.000005258   -0.000000615    0.000000184
     18        1           0.000000624   -0.000003212    0.000003759
     19        1          -0.000002747    0.000002589   -0.000003254
     20        1           0.000001586   -0.000002949    0.000003552
     21        1          -0.000002300    0.000002820   -0.000003475
     22        1           0.000002078   -0.000002902    0.000003548
     23        1          -0.000002080    0.000002901   -0.000003546
     24        1           0.000002299   -0.000002823    0.000003479
     25        1          -0.000001585    0.000002947   -0.000003551
     26        1           0.000002743   -0.000002593    0.000003258
     27        1          -0.000000628    0.000003213   -0.000003761
     28        1           0.000005259    0.000000609   -0.000000176
     29        1           0.000002296   -0.000000154    0.000000406
     30        1          -0.000000578   -0.000002267    0.000002552
 -------------------------------------------------------------------
 Cartesian Forces:  Max     0.000013414 RMS     0.000005196

 GradGradGradGradGradGradGradGradGradGradGradGradGradGradGradGradGradGrad
 Berny optimization.
 Using GEDIIS/GDIIS optimizer.
 FormGI is forming the generalized inverse of G from B-inverse, IUseBI=4.
 Internal  Forces:  Max     0.000013356 RMS     0.000004455
 Search for a local minimum.
 Step number   2 out of a maximum of  133
 All quantities printed in internal units (Hartrees-Bohrs-Radians)
 Mixed Optimization -- En-DIIS/RFO-DIIS
 Swapping is turned off.
 Update second derivatives using D2CorX and points    1    2
[...]
     17          1           0        1.453123    6.887590    0.000000
     18          1           0       -1.424114    5.607995    0.000000
     19          1           0        1.436215    4.396532    0.000000
     20          1           0       -1.431667    3.102682    0.000000
     21          1           0        1.432611    1.898082    0.000000
     22          1           0       -1.432594    0.601575    0.000000
     23          1           0        1.432592   -0.601575    0.000000
     24          1           0       -1.432612   -1.898083    0.000000
     25          1           0        1.431666   -3.102682    0.000000
     26          1           0       -1.436216   -4.396533    0.000000
     27          1           0        1.424114   -5.607994    0.000000
     28          1           0       -1.453122   -6.887591    0.000000
     29          1           0        1.388906   -8.150719    0.000000
     30          1           0       -0.246670   -9.046656    0.000000
 ---------------------------------------------------------------------
 Rotational constants (GHZ):     10.7557856      0.1056202      0.1045931

 **********************************************************************

            Population analysis using the SCF density.

 **********************************************************************

 Orbital symmetries:
       Occupied  (A') (A') (A') (A') (A') (A') (A') (A') (A') (A')
                 (A') (A') (A') (A') (A') (A') (A') (A') (A') (A')
                 (A') (A') (A') (A') (A') (A') (A') (A') (A') (A')
                 (A') (A') (A') (A') (A') (A') (A') (A') (A') (A')
                 (A') (A') (A") (A') (A") (A") (A") (A") (A") (A")
       Virtual   (A") (A") (A") (A") (A") (A") (A") (A') (A') (A')
                 (A') (A') (A') (A') (A') (A') (A') (A') (A') (A')
                 (A') (A') (A') (A') (A') (A') (A') (A') (A') (A')
                 (A') (A') (A') (A') (A') (A')
 The electronic state is 1-A'.
 Alpha  occ. eigenvalues --  -10.00834 -10.00834 -10.00770 -10.00756 -10.00740
 Alpha  occ. eigenvalues --  -10.00729 -10.00680 -10.00660 -10.00642 -10.00632
 Alpha  occ. eigenvalues --  -10.00575 -10.00575  -9.99167  -9.99167  -0.78003
 Alpha  occ. eigenvalues --   -0.77093  -0.75647  -0.73691  -0.71257  -0.68414
 Alpha  occ. eigenvalues --   -0.65375  -0.59345  -0.55866  -0.52656  -0.52357
 Alpha  occ. eigenvalues --   -0.51885  -0.50813  -0.50409  -0.43953  -0.43596
 Alpha  occ. eigenvalues --   -0.42249  -0.40794  -0.39850  -0.37699  -0.36577
 Alpha  occ. eigenvalues --   -0.35376  -0.33917  -0.33424  -0.32404  -0.32009
 Alpha  occ. eigenvalues --   -0.31104  -0.30175  -0.29927  -0.29341  -0.28662
 Alpha  occ. eigenvalues --   -0.26621  -0.23824  -0.20313  -0.16204  -0.11901
 Alpha virt. eigenvalues --    0.00066   0.04933   0.09957   0.14593   0.18517
 Alpha virt. eigenvalues --    0.21484   0.23322   0.30934   0.33320   0.36407
 Alpha virt. eigenvalues --    0.39139   0.40761   0.41397   0.41660   0.42712
 Alpha virt. eigenvalues --    0.42821   0.42874   0.42959   0.43030   0.43272
 Alpha virt. eigenvalues --    0.43514   0.43925   0.52219   0.52493   0.55559
 Alpha virt. eigenvalues --    0.56814   0.60852   0.61045   0.65163   0.65456
 Alpha virt. eigenvalues --    0.69003   0.69116   0.72243   0.74989   0.76898
 Alpha virt. eigenvalues --    0.77712
          Condensed to atoms (all electrons):
               1          2          3          4          5          6
     1  C    4.856442   0.579449  -0.027603   0.000687  -0.000006   0.000000
     2  C    0.579449   4.790001   0.426429  -0.026672   0.000812  -0.000006
     3  C   -0.027603   0.426429   4.818861   0.557847  -0.026981   0.000696
     4  C    0.000687  -0.026672   0.557847   4.809073   0.437530  -0.026936
     5  C   -0.000006   0.000812  -0.026981   0.437530   4.813818   0.552086
     6  C    0.000000  -0.000006   0.000696  -0.026936   0.552086   4.811308
     7  C    0.000000   0.000000  -0.000006   0.000815  -0.027020   0.440658
     8  C    0.000000   0.000000   0.000000  -0.000006   0.000701  -0.027006
     9  C    0.000000   0.000000   0.000000   0.000000  -0.000006   0.000815
    10  C    0.000000   0.000000   0.000000   0.000000   0.000000  -0.000006
    11  C    0.000000   0.000000   0.000000   0.000000   0.000000   0.000000
    12  C    0.000000   0.000000   0.000000   0.000000   0.000000   0.000000
    13  C    0.000000   0.000000   0.000000   0.000000   0.000000   0.000000
    14  C    0.000000   0.000000   0.000000   0.000000   0.000000   0.000000
    15  H    0.388067  -0.023832   0.001413  -0.000019   0.000000   0.000000
    16  H    0.386162  -0.024407  -0.004210   0.000025  -0.000001   0.000000
    17  H   -0.026788   0.385308  -0.025317  -0.003234   0.000003   0.000000
    18  H   -0.003081  -0.024623   0.384228  -0.026609  -0.004159   0.000024
    19  H    0.000027  -0.004218  -0.026730   0.384335  -0.024974  -0.003289
    20  H    0.000000   0.000004  -0.003265  -0.024897   0.384352  -0.026588
    21  H    0.000000  -0.000001   0.000025  -0.004168  -0.026625   0.384377
    22  H    0.000000   0.000000   0.000000   0.000005  -0.003304  -0.024981
    23  H    0.000000   0.000000   0.000000  -0.000001   0.000024  -0.004154
    24  H    0.000000   0.000000   0.000000   0.000000   0.000000   0.000005
    25  H    0.000000   0.000000   0.000000   0.000000   0.000000  -0.000001
    26  H    0.000000   0.000000   0.000000   0.000000   0.000000   0.000000
    27  H    0.000000   0.000000   0.000000   0.000000   0.000000   0.000000
    28  H    0.000000   0.000000   0.000000   0.000000   0.000000   0.000000
    29  H    0.000000   0.000000   0.000000   0.000000   0.000000   0.000000
    30  H    0.000000   0.000000   0.000000   0.000000   0.000000   0.000000
               7          8          9         10         11         12
     1  C    0.000000   0.000000   0.000000   0.000000   0.000000   0.000000
     2  C    0.000000   0.000000   0.000000   0.000000   0.000000   0.000000
     3  C   -0.000006   0.000000   0.000000   0.000000   0.000000   0.000000
     4  C    0.000815  -0.000006   0.000000   0.000000   0.000000   0.000000
     5  C   -0.027020   0.000701  -0.000006   0.000000   0.000000   0.000000
     6  C    0.440658  -0.027006   0.000815  -0.000006   0.000000   0.000000
     7  C    4.812478   0.550683  -0.027006   0.000701  -0.000006   0.000000
     8  C    0.550683   4.812478   0.440658  -0.027020   0.000815  -0.000006
     9  C   -0.027006   0.440658   4.811308   0.552086  -0.026936   0.000696
    10  C    0.000701  -0.027020   0.552086   4.813818   0.437530  -0.026981
    11  C   -0.000006   0.000815  -0.026936   0.437530   4.809073   0.557847
    12  C    0.000000  -0.000006   0.000696  -0.026981   0.557847   4.818861
    13  C    0.000000   0.000000  -0.000006   0.000812  -0.026672   0.426429
    14  C    0.000000   0.000000   0.000000  -0.000006   0.000687  -0.027603
    15  H    0.000000   0.000000   0.000000   0.000000   0.000000   0.000000
    16  H    0.000000   0.000000   0.000000   0.000000   0.000000   0.000000
    17  H    0.000000   0.000000   0.000000   0.000000   0.000000   0.000000
    18  H   -0.000001   0.000000   0.000000   0.000000   0.000000   0.000000
    19  H    0.000005   0.000000   0.000000   0.000000   0.000000   0.000000
    20  H   -0.004153   0.000024  -0.000001   0.000000   0.000000   0.000000
    21  H   -0.024998  -0.003309   0.000005   0.000000   0.000000   0.000000
    22  H    0.384372  -0.026593  -0.004154   0.000024  -0.000001   0.000000
    23  H   -0.026593   0.384372  -0.024981  -0.003304   0.000005   0.000000
    24  H   -0.003309  -0.024998   0.384377  -0.026625  -0.004168   0.000025
    25  H    0.000024  -0.004153  -0.026588   0.384352  -0.024897  -0.003265
    26  H    0.000000   0.000005  -0.003289  -0.024974   0.384335  -0.026730
    27  H    0.000000  -0.000001   0.000024  -0.004159  -0.026609   0.384228
    28  H    0.000000   0.000000   0.000000   0.000003  -0.003234  -0.025317
    29  H    0.000000   0.000000   0.000000  -0.000001   0.000025  -0.004210
    30  H    0.000000   0.000000   0.000000   0.000000  -0.000019   0.001413
              13         14         15         16         17         18
     1  C    0.000000   0.000000   0.388067   0.386162  -0.026788  -0.003081
     2  C    0.000000   0.000000  -0.023832  -0.024407   0.385308  -0.024623
     3  C    0.000000   0.000000   0.001413  -0.004210  -0.025317   0.384228
     4  C    0.000000   0.000000  -0.000019   0.000025  -0.003234  -0.026609
     5  C    0.000000   0.000000   0.000000  -0.000001   0.000003  -0.004159
     6  C    0.000000   0.000000   0.000000   0.000000   0.000000   0.000024
     7  C    0.000000   0.000000   0.000000   0.000000   0.000000  -0.000001
     8  C    0.000000   0.000000   0.000000   0.000000   0.000000   0.000000
     9  C   -0.000006   0.000000   0.000000   0.000000   0.000000   0.000000
    10  C    0.000812  -0.000006   0.000000   0.000000   0.000000   0.000000
    11  C   -0.026672   0.000687   0.000000   0.000000   0.000000   0.000000
    12  C    0.426429  -0.027603   0.000000   0.000000   0.000000   0.000000
    13  C    4.790001   0.579449   0.000000   0.000000   0.000000   0.000000
    14  C    0.579449   4.856442   0.000000   0.000000   0.000000   0.000000
    15  H    0.000000   0.000000   0.584154  -0.023567  -0.004628   0.000000
    16  H    0.000000   0.000000  -0.023567   0.586639   0.002005   0.000954
    17  H    0.000000   0.000000  -0.004628   0.002005   0.592540   0.001555
    18  H    0.000000   0.000000   0.000000   0.000954   0.001555   0.592391
    19  H    0.000000   0.000000  -0.000001   0.000001   0.001015   0.001970
    20  H    0.000000   0.000000   0.000000   0.000000   0.000000   0.000975
    21  H    0.000000   0.000000   0.000000   0.000000   0.000000   0.000001
    22  H    0.000000   0.000000   0.000000   0.000000   0.000000   0.000000
    23  H    0.000000   0.000000   0.000000   0.000000   0.000000   0.000000
    24  H   -0.000001   0.000000   0.000000   0.000000   0.000000   0.000000
    25  H    0.000004   0.000000   0.000000   0.000000   0.000000   0.000000
    26  H   -0.004218   0.000027   0.000000   0.000000   0.000000   0.000000
    27  H   -0.024623  -0.003081   0.000000   0.000000   0.000000   0.000000
    28  H    0.385308  -0.026788   0.000000   0.000000   0.000000   0.000000
    29  H   -0.024407   0.386162   0.000000   0.000000   0.000000   0.000000
    30  H   -0.023832   0.388067   0.000000   0.000000   0.000000   0.000000
              19         20         21         22         23         24
     1  C    0.000027   0.000000   0.000000   0.000000   0.000000   0.000000
     2  C   -0.004218   0.000004  -0.000001   0.000000   0.000000   0.000000
     3  C   -0.026730  -0.003265   0.000025   0.000000   0.000000   0.000000
     4  C    0.384335  -0.024897  -0.004168   0.000005  -0.000001   0.000000
     5  C   -0.024974   0.384352  -0.026625  -0.003304   0.000024   0.000000
     6  C   -0.003289  -0.026588   0.384377  -0.024981  -0.004154   0.000005
     7  C    0.000005  -0.004153  -0.024998   0.384372  -0.026593  -0.003309
     8  C    0.000000   0.000024  -0.003309  -0.026593   0.384372  -0.024998
     9  C    0.000000  -0.000001   0.000005  -0.004154  -0.024981   0.384377
    10  C    0.000000   0.000000   0.000000   0.000024  -0.003304  -0.026625
    11  C    0.000000   0.000000   0.000000  -0.000001   0.000005  -0.004168
    12  C    0.000000   0.000000   0.000000   0.000000   0.000000   0.000025
    13  C    0.000000   0.000000   0.000000   0.000000   0.000000  -0.000001
    14  C    0.000000   0.000000   0.000000   0.000000   0.000000   0.000000
    15  H   -0.000001   0.000000   0.000000   0.000000   0.000000   0.000000
    16  H    0.000001   0.000000   0.000000   0.000000   0.000000   0.000000
    17  H    0.001015   0.000000   0.000000   0.000000   0.000000   0.000000
    18  H    0.001970   0.000975   0.000001   0.000000   0.000000   0.000000
    19  H    0.592814   0.001582   0.000984   0.000000   0.000000   0.000000
    20  H    0.001582   0.592528   0.001956   0.000980   0.000001   0.000000
    21  H    0.000984   0.001956   0.592702   0.001593   0.000982   0.000000
    22  H    0.000000   0.000980   0.001593   0.592652   0.001952   0.000982
    23  H    0.000000   0.000001   0.000982   0.001952   0.592652   0.001593
    24  H    0.000000   0.000000   0.000000   0.000982   0.001593   0.592702
    25  H    0.000000   0.000000   0.000000   0.000001   0.000980   0.001956
    26  H    0.000000   0.000000   0.000000   0.000000   0.000000   0.000984
    27  H    0.000000   0.000000   0.000000   0.000000   0.000000   0.000001
    28  H    0.000000   0.000000   0.000000   0.000000   0.000000   0.000000
    29  H    0.000000   0.000000   0.000000   0.000000   0.000000   0.000000
    30  H    0.000000   0.000000   0.000000   0.000000   0.000000   0.000000
              25         26         27         28         29         30
     1  C    0.000000   0.000000   0.000000   0.000000   0.000000   0.000000
     2  C    0.000000   0.000000   0.000000   0.000000   0.000000   0.000000
     3  C    0.000000   0.000000   0.000000   0.000000   0.000000   0.000000
     4  C    0.000000   0.000000   0.000000   0.000000   0.000000   0.000000
     5  C    0.000000   0.000000   0.000000   0.000000   0.000000   0.000000
     6  C   -0.000001   0.000000   0.000000   0.000000   0.000000   0.000000
     7  C    0.000024   0.000000   0.000000   0.000000   0.000000   0.000000
     8  C   -0.004153   0.000005  -0.000001   0.000000   0.000000   0.000000
     9  C   -0.026588  -0.003289   0.000024   0.000000   0.000000   0.000000
    10  C    0.384352  -0.024974  -0.004159   0.000003  -0.000001   0.000000
    11  C   -0.024897   0.384335  -0.026609  -0.003234   0.000025  -0.000019
    12  C   -0.003265  -0.026730   0.384228  -0.025317  -0.004210   0.001413
    13  C    0.000004  -0.004218  -0.024623   0.385308  -0.024407  -0.023832
    14  C    0.000000   0.000027  -0.003081  -0.026788   0.386162   0.388067
    15  H    0.000000   0.000000   0.000000   0.000000   0.000000   0.000000
    16  H    0.000000   0.000000   0.000000   0.000000   0.000000   0.000000
    17  H    0.000000   0.000000   0.000000   0.000000   0.000000   0.000000
    18  H    0.000000   0.000000   0.000000   0.000000   0.000000   0.000000
    19  H    0.000000   0.000000   0.000000   0.000000   0.000000   0.000000
    20  H    0.000000   0.000000   0.000000   0.000000   0.000000   0.000000
    21  H    0.000000   0.000000   0.000000   0.000000   0.000000   0.000000
    22  H    0.000001   0.000000   0.000000   0.000000   0.000000   0.000000
    23  H    0.000980   0.000000   0.000000   0.000000   0.000000   0.000000
    24  H    0.001956   0.000984   0.000001   0.000000   0.000000   0.000000
    25  H    0.592528   0.001582   0.000975   0.000000   0.000000   0.000000
    26  H    0.001582   0.592814   0.001970   0.001015   0.000001  -0.000001
    27  H    0.000975   0.001970   0.592391   0.001555   0.000954   0.000000
    28  H    0.000000   0.001015   0.001555   0.592540   0.002005  -0.004628
    29  H    0.000000   0.000001   0.000954   0.002005   0.586639  -0.023567
    30  H    0.000000  -0.000001   0.000000  -0.004628  -0.023567   0.584154
 Mulliken charges:
               1
     1  C   -0.153357
     2  C   -0.078245
     3  C   -0.075385
     4  C   -0.077775
     5  C   -0.076249
     6  C   -0.077003
     7  C   -0.076644
     8  C   -0.076644
     9  C   -0.077003
    10  C   -0.076249
    11  C   -0.077775
    12  C   -0.075385
    13  C   -0.078245
    14  C   -0.153357
    15  H    0.078411
    16  H    0.076399
    17  H    0.077540
    18  H    0.076375
    19  H    0.076479
    20  H    0.076502
    21  H    0.076478
    22  H    0.076471
    23  H    0.076471
    24  H    0.076478
    25  H    0.076502
    26  H    0.076479
    27  H    0.076375
    28  H    0.077540
    29  H    0.076399
    30  H    0.078411
 Sum of Mulliken charges =   0.00000
 Mulliken charges with hydrogens summed into heavy atoms:
               1
     1  C    0.001454
     2  C   -0.000705
     3  C    0.000990
     4  C   -0.001295
     5  C    0.000254
     6  C   -0.000525
     7  C   -0.000173
     8  C   -0.000173
     9  C   -0.000525
    10  C    0.000254
    11  C   -0.001295
    12  C    0.000990
    13  C   -0.000705
    14  C    0.001454
 Electronic spatial extent (au):  <R**2>=           9769.2312
 Charge=              0.0000 electrons
 Dipole moment (field-independent basis, Debye):
    X=              0.0000    Y=              0.0000    Z=              0.0000  Tot=              0.0000
 Quadrupole moment (field-independent basis, Debye-Ang):
   XX=            -71.6480   YY=            -72.4288   ZZ=            -83.8382
   XY=             -0.1737   XZ=              0.0000   YZ=              0.0000
 Traceless Quadrupole moment (field-independent basis, Debye-Ang):
   XX=              4.3237   YY=              3.5429   ZZ=             -7.8665
   XY=             -0.1737   XZ=              0.0000   YZ=              0.0000
 Octapole moment (field-independent basis, Debye-Ang**2):
  XXX=              0.0000  YYY=              0.0000  ZZZ=              0.0000  XYY=              0.0000
  XXY=              0.0000  XXZ=              0.0000  XZZ=              0.0000  YZZ=              0.0000
  YYZ=              0.0000  XYZ=              0.0000
 Hexadecapole moment (field-independent basis, Debye-Ang**3):
 XXXX=           -207.0037 YYYY=         -11609.0775 ZZZZ=            -68.0283 XXXY=             32.1435
 XXXZ=              0.0000 YYYX=             53.1218 YYYZ=              0.0000 ZZZX=              0.0000
 ZZZY=              0.0000 XXYY=          -1957.5304 XXZZ=            -52.9629 YYZZ=          -2246.5264
 XXYZ=              0.0000 YYXZ=              0.0000 ZZXY=             14.0253
 N-N= 6.547575496525D+02 E-N=-2.550467837387D+03  KE= 5.275097364212D+02
 Symmetry A'   KE= 5.098907545301D+02
 Symmetry A"   KE= 1.761898189110D+01
 1\1\GINC-MW\FOpt\RB3LYP\STO-3G\C14H16\BING\25-Feb-2019\0\\# opt(tight)
  b3lyp/sto-3g\\c14h16\\0,1\C,1.1048291077,-0.347965865,-0.2054205272\C
 ,1.6926773658,0.4767825387,-1.096057554\C,3.1506812518,0.6861519492,-1
 .191590706\C,3.7398810969,1.5224531313,-2.095390078\C,5.1862635447,1.7
 334646104,-2.1939725904\C,5.7752312888,2.5728068264,-3.1012953288\C,7.
 2183908866,2.7842781418,-3.2007286201\C,7.8073594149,3.6243470065,-4.1
 088876484\C,9.2505189753,3.8358184746,-4.2083211192\C,9.8394863265,4.6
 75160796,-5.115644018\C,11.2858686713,4.8861727061,-5.2142270368\C,11.
 8750678062,5.7224740796,-6.1180267\C,13.3330715485,5.9318441242,-6.213
 5605962\C,13.9209189128,6.7565927725,-7.1041979937\H,0.0168115768,-0.4
 759685286,-0.1666303487\H,1.6917939906,-0.9261541476,0.5186260839\H,1.
 0733851164,1.0421619887,-1.8085862382\H,3.7789463933,0.1255088742,-0.4
 836184295\H,3.1079464305,2.0813476048,-2.8017157947\H,5.8196792,1.1754
 201971,-1.4884775453\H,5.1408161307,3.1303693539,-3.8063354362\H,7.853
 1592516,2.2269134637,-2.4958810004\H,7.1725909845,4.1817116533,-4.8137
 352386\H,9.8849343659,3.2782560688,-3.5032811286\H,9.2060703224,5.2332
 050326,-5.8211388946\H,11.9178038269,4.3272784845,-4.5079015612\H,11.2
 468021024,6.2831168703,-6.8259987054\H,13.9523644537,5.3664650022,-5.5
 01032224\H,13.3339533236,7.3347807256,-7.828244296\H,15.0089363582,6.8
 845959731,-7.1429887987\\Version=ES64L-G09RevD.01\State=1-A'\HF=-536.3
 594326\RMSD=8.631e-09\RMSF=2.902e-06\Dipole=0.0000003,0.0000002,-0.000
 0002\Quadrupole=2.6708879,-1.9758639,-0.695024,0.2688945,0.540401,-4.4
 306341\PG=CS [SG(C14H16)]\\@


 REALITY IS FOR PEOPLE WHO CAN'T FACE SCIENCE FICTION.
 Job cpu time:       0 days  0 hours  2 minutes 50.6 seconds.
 File lengths (MBytes):  RWF=      7 Int=      0 D2E=      0 Chk=      2 Scr=      1
 Normal termination of Gaussian 09 at Mon Feb 25 22:31:38 2019.
