 Entering Gaussian System, Link 0=g09
 Input=c14h30.com
 Output=c14h30.out
 Initial command:
 /home/bing/src/g09_d.01/g09/l1.exe "/data/trash/Gau-6391.inp" -scrdir="/data/trash/"
 Entering Link 1 = /home/bing/src/g09_d.01/g09/l1.exe PID=      6393.
  
 Copyright (c) 1988,1990,1992,1993,1995,1998,2003,2009,2013,
            Gaussian, Inc.  All Rights Reserved.
  
 This is part of the Gaussian(R) 09 program.  It is based on
 the Gaussian(R) 03 system (copyright 2003, Gaussian, Inc.),
 the Gaussian(R) 98 system (copyright 1998, Gaussian, Inc.),
 the Gaussian(R) 94 system (copyright 1995, Gaussian, Inc.),
 the Gaussian 92(TM) system (copyright 1992, Gaussian, Inc.),
 the Gaussian 90(TM) system (copyright 1990, Gaussian, Inc.),
 the Gaussian 88(TM) system (copyright 1988, Gaussian, Inc.),
 the Gaussian 86(TM) system (copyright 1986, Carnegie Mellon
 University), and the Gaussian 82(TM) system (copyright 1983,
 Carnegie Mellon University). Gaussian is a federally registered
 trademark of Gaussian, Inc.
  
 This software contains proprietary and confidential information,
 including trade secrets, belonging to Gaussian, Inc.
  
 This software is provided under written license and may be
 used, copied, transmitted, or stored only in accord with that
 written license.
  
 The following legend is applicable only to US Government
 contracts under FAR:
  
                    RESTRICTED RIGHTS LEGEND
  
 Use, reproduction and disclosure by the US Government is
 subject to restrictions as set forth in subparagraphs (a)
 and (c) of the Commercial Computer Software - Restricted
 Rights clause in FAR 52.227-19.
  
 Gaussian, Inc.
 340 Quinnipiac St., Bldg. 40, Wallingford CT 06492
  
  
 ---------------------------------------------------------------
 Warning -- This program may not be used in any manner that
 competes with the business of Gaussian, Inc. or will provide
 assistance to any competitor of Gaussian, Inc.  The licensee
 of this program is prohibited from giving any competitor of
 Gaussian, Inc. access to this program.  By using this program,
 the user acknowledges that Gaussian, Inc. is engaged in the
 business of creating and licensing software in the field of
 computational chemistry and represents and warrants to the
 licensee that it is not a competitor of Gaussian, Inc. and that
 it will not use this program in any manner prohibited above.
 ---------------------------------------------------------------
  

 Cite this work as:
 Gaussian 09, Revision D.01,
 M. J. Frisch, G. W. Trucks, H. B. Schlegel, G. E. Scuseria, 
 M. A. Robb, J. R. Cheeseman, G. Scalmani, V. Barone, B. Mennucci, 
 G. A. Petersson, H. Nakatsuji, M. Caricato, X. Li, H. P. Hratchian, 
 A. F. Izmaylov, J. Bloino, G. Zheng, J. L. Sonnenberg, M. Hada, 
 M. Ehara, K. Toyota, R. Fukuda, J. Hasegawa, M. Ishida, T. Nakajima, 
 Y. Honda, O. Kitao, H. Nakai, T. Vreven, J. A. Montgomery, Jr., 
 J. E. Peralta, F. Ogliaro, M. Bearpark, J. J. Heyd, E. Brothers, 
 K. N. Kudin, V. N. Staroverov, T. Keith, R. Kobayashi, J. Normand, 
 K. Raghavachari, A. Rendell, J. C. Burant, S. S. Iyengar, J. Tomasi, 
 M. Cossi, N. Rega, J. M. Millam, M. Klene, J. E. Knox, J. B. Cross, 
 V. Bakken, C. Adamo, J. Jaramillo, R. Gomperts, R. E. Stratmann, 
 O. Yazyev, A. J. Austin, R. Cammi, C. Pomelli, J. W. Ochterski, 
 R. L. Martin, K. Morokuma, V. G. Zakrzewski, G. A. Voth, 
 P. Salvador, J. J. Dannenberg, S. Dapprich, A. D. Daniels, 
 O. Farkas, J. B. Foresman, J. V. Ortiz, J. Cioslowski, 
 and D. J. Fox, Gaussian, Inc., Wallingford CT, 2013.
 
 ******************************************
 Gaussian 09:  ES64L-G09RevD.01 24-Apr-2013
                25-Feb-2019 
 ******************************************
 %nproc=6
 Will use up to    6 processors via shared memory.
 -------------------------
 # opt(tight) b3lyp/sto-3g
 -------------------------
 1/7=10,14=-1,18=20,19=15,26=3,38=1/1,3;
 2/9=110,12=2,17=6,18=5,40=1/2;
 3/6=3,11=2,16=1,25=1,30=1,71=1,74=-5/1,2,3;
 4//1;
 5/5=2,38=5/2;
 6/7=2,8=2,9=2,10=2,28=1/1;
 7//1,2,3,16;
 1/7=10,14=-1,18=20,19=15,26=3/3(2);
 2/9=110/2;
 99//99;
 2/9=110/2;
 3/6=3,11=2,16=1,25=1,30=1,71=1,74=-5/1,2,3;
 4/5=5,16=3,69=1/1;
 5/5=2,38=5/2;
 7//1,2,3,16;
 1/7=10,14=-1,18=20,19=15,26=3/3(-5);
 2/9=110/2;
 6/7=2,8=2,9=2,10=2,19=2,28=1/1;
 99/9=1/99;
 ------
 c14h30
 ------
 Symbolic Z-matrix:
 Charge =  0 Multiplicity = 1
 C                     0.04151  -1.12992  -2.53482 
 C                     0.46703  -2.50187  -1.93669 
 C                     1.74516  -2.39133  -1.04766 
 C                     2.17166  -3.76766  -0.44789 
 C                     3.4498   -3.65669   0.44105 
 C                     3.87641  -5.0331    1.04091 
 C                     5.15459  -4.92198   1.92985 
 C                     5.58125  -6.29837   2.52974 
 C                     6.85944  -6.18726   3.41867 
 C                     7.28605  -7.56367   4.01852 
 C                     8.5642   -7.45271   4.90746 
 C                     8.9907   -8.82905   5.50721 
 C                     10.26884  -8.71853   6.39623 
 C                     10.69436  -10.09048   6.99434 
 H                    -0.86097  -1.24078  -3.15553 
 H                     0.84406  -0.71414  -3.16319 
 H                    -0.17693  -0.40748  -1.73347 
 H                     0.65568  -3.2161   -2.75723 
 H                    -0.36178  -2.9105   -1.33246 
 H                     1.55708  -1.67767  -0.22647 
 H                     2.57465  -1.98329  -1.6514 
 H                     2.35942  -4.48107  -1.26939 
 H                     1.34183  -4.17544   0.15557 
 H                     3.262    -2.94326   1.26251 
 H                     4.27958  -3.24889  -0.16244 
 H                     4.06423  -5.74652   0.21945 
 H                     3.04664  -5.44089   1.64442 
 H                     4.96676  -4.20855   2.7513 
 H                     5.98435  -4.51417   1.32633 
 H                     5.76908  -7.0118    1.70829 
 H                     4.7515   -6.70618   3.13326 
 H                     6.67162  -5.47384   4.24013 
 H                     7.68921  -5.77946   2.81516 
 H                     7.47385  -8.27709   3.19705 
 H                     6.45627  -7.97147   4.62202 
 H                     8.37644  -6.73931   5.72896 
 H                     9.39402  -7.04493   4.30399 
 H                     9.17877  -9.5427    4.68601 
 H                     8.16121  -9.23709   6.11095 
 H                     10.0802  -8.00431   7.21678 
 H                     11.09764  -8.30988   5.792 
 H                     9.89181  -10.50627   7.62271 
 H                     11.59685  -9.97963   7.61503 
 H                     10.91279  -10.81291   6.19297 
 

 GradGradGradGradGradGradGradGradGradGradGradGradGradGradGradGradGradGrad
 Berny optimization.
 Initialization pass.
                           ----------------------------
                           !    Initial Parameters    !
                           ! (Angstroms and Degrees)  !
 --------------------------                            --------------------------
 ! Name  Definition              Value          Derivative Info.                !
 --------------------------------------------------------------------------------
 ! R1    R(1,2)                  1.556          estimate D2E/DX2                !
 ! R2    R(1,15)                 1.1009         estimate D2E/DX2                !
 ! R3    R(1,16)                 1.1008         estimate D2E/DX2                !
 ! R4    R(1,17)                 1.1008         estimate D2E/DX2                !
 ! R5    R(2,3)                  1.5608         estimate D2E/DX2                !
 ! R6    R(2,18)                 1.1041         estimate D2E/DX2                !
 ! R7    R(2,19)                 1.1041         estimate D2E/DX2                !
 ! R8    R(3,4)                  1.5607         estimate D2E/DX2                !
 ! R9    R(3,20)                 1.1041         estimate D2E/DX2                !
 ! R10   R(3,21)                 1.1041         estimate D2E/DX2                !
 ! R11   R(4,5)                  1.5608         estimate D2E/DX2                !
 ! R12   R(4,22)                 1.1041         estimate D2E/DX2                !
 ! R13   R(4,23)                 1.1041         estimate D2E/DX2                !
 ! R14   R(5,6)                  1.5609         estimate D2E/DX2                !
 ! R15   R(5,24)                 1.1041         estimate D2E/DX2                !
 ! R16   R(5,25)                 1.1041         estimate D2E/DX2                !
 ! R17   R(6,7)                  1.5609         estimate D2E/DX2                !
 ! R18   R(6,26)                 1.1041         estimate D2E/DX2                !
 ! R19   R(6,27)                 1.1041         estimate D2E/DX2                !
 ! R20   R(7,8)                  1.5609         estimate D2E/DX2                !
 ! R21   R(7,28)                 1.1041         estimate D2E/DX2                !
 ! R22   R(7,29)                 1.1041         estimate D2E/DX2                !
 ! R23   R(8,9)                  1.5609         estimate D2E/DX2                !
 ! R24   R(8,30)                 1.1041         estimate D2E/DX2                !
 ! R25   R(8,31)                 1.1041         estimate D2E/DX2                !
 ! R26   R(9,10)                 1.5609         estimate D2E/DX2                !
 ! R27   R(9,32)                 1.1041         estimate D2E/DX2                !
 ! R28   R(9,33)                 1.1041         estimate D2E/DX2                !
 ! R29   R(10,11)                1.5608         estimate D2E/DX2                !
 ! R30   R(10,34)                1.1041         estimate D2E/DX2                !
 ! R31   R(10,35)                1.1041         estimate D2E/DX2                !
 ! R32   R(11,12)                1.5607         estimate D2E/DX2                !
 ! R33   R(11,36)                1.1041         estimate D2E/DX2                !
 ! R34   R(11,37)                1.1041         estimate D2E/DX2                !
 ! R35   R(12,13)                1.5608         estimate D2E/DX2                !
 ! R36   R(12,38)                1.1041         estimate D2E/DX2                !
 ! R37   R(12,39)                1.1041         estimate D2E/DX2                !
 ! R38   R(13,14)                1.556          estimate D2E/DX2                !
 ! R39   R(13,40)                1.1041         estimate D2E/DX2                !
 ! R40   R(13,41)                1.1041         estimate D2E/DX2                !
 ! R41   R(14,42)                1.1008         estimate D2E/DX2                !
 ! R42   R(14,43)                1.1009         estimate D2E/DX2                !
 ! R43   R(14,44)                1.1008         estimate D2E/DX2                !
 ! A1    A(2,1,15)             110.6173         estimate D2E/DX2                !
 ! A2    A(2,1,16)             110.6763         estimate D2E/DX2                !
 ! A3    A(2,1,17)             110.6763         estimate D2E/DX2                !
 ! A4    A(15,1,16)            108.2907         estimate D2E/DX2                !
 ! A5    A(15,1,17)            108.2907         estimate D2E/DX2                !
 ! A6    A(16,1,17)            108.1993         estimate D2E/DX2                !
 ! A7    A(1,2,3)              112.3615         estimate D2E/DX2                !
 ! A8    A(1,2,18)             109.3555         estimate D2E/DX2                !
 ! A9    A(1,2,19)             109.3555         estimate D2E/DX2                !
 ! A10   A(3,2,18)             109.2204         estimate D2E/DX2                !
 ! A11   A(3,2,19)             109.2204         estimate D2E/DX2                !
 ! A12   A(18,2,19)            107.1912         estimate D2E/DX2                !
 ! A13   A(2,3,4)              112.346          estimate D2E/DX2                !
 ! A14   A(2,3,20)             109.2638         estimate D2E/DX2                !
 ! A15   A(2,3,21)             109.2638         estimate D2E/DX2                !
 ! A16   A(4,3,20)             109.3131         estimate D2E/DX2                !
 ! A17   A(4,3,21)             109.3131         estimate D2E/DX2                !
 ! A18   A(20,3,21)            107.2061         estimate D2E/DX2                !
 ! A19   A(3,4,5)              112.3295         estimate D2E/DX2                !
 ! A20   A(3,4,22)             109.2894         estimate D2E/DX2                !
 ! A21   A(3,4,23)             109.2895         estimate D2E/DX2                !
 ! A22   A(5,4,22)             109.2953         estimate D2E/DX2                !
 ! A23   A(5,4,23)             109.2953         estimate D2E/DX2                !
 ! A24   A(22,4,23)            107.2079         estimate D2E/DX2                !
 ! A25   A(4,5,6)              112.3331         estimate D2E/DX2                !
 ! A26   A(4,5,24)             109.2923         estimate D2E/DX2                !
 ! A27   A(4,5,25)             109.2923         estimate D2E/DX2                !
 ! A28   A(6,5,24)             109.2903         estimate D2E/DX2                !
 ! A29   A(6,5,25)             109.2902         estimate D2E/DX2                !
 ! A30   A(24,5,25)            107.2086         estimate D2E/DX2                !
 ! A31   A(5,6,7)              112.3282         estimate D2E/DX2                !
 ! A32   A(5,6,26)             109.2905         estimate D2E/DX2                !
 ! A33   A(5,6,27)             109.2905         estimate D2E/DX2                !
 ! A34   A(7,6,26)             109.2942         estimate D2E/DX2                !
 ! A35   A(7,6,27)             109.2942         estimate D2E/DX2                !
 ! A36   A(26,6,27)            107.2094         estimate D2E/DX2                !
 ! A37   A(6,7,8)              112.3305         estimate D2E/DX2                !
 ! A38   A(6,7,28)             109.2934         estimate D2E/DX2                !
 ! A39   A(6,7,29)             109.2933         estimate D2E/DX2                !
 ! A40   A(8,7,28)             109.2903         estimate D2E/DX2                !
 ! A41   A(8,7,29)             109.2903         estimate D2E/DX2                !
 ! A42   A(28,7,29)            107.209          estimate D2E/DX2                !
 ! A43   A(7,8,9)              112.3306         estimate D2E/DX2                !
 ! A44   A(7,8,30)             109.2902         estimate D2E/DX2                !
 ! A45   A(7,8,31)             109.2903         estimate D2E/DX2                !
 ! A46   A(9,8,30)             109.2933         estimate D2E/DX2                !
 ! A47   A(9,8,31)             109.2934         estimate D2E/DX2                !
 ! A48   A(30,8,31)            107.209          estimate D2E/DX2                !
 ! A49   A(8,9,10)             112.3281         estimate D2E/DX2                !
 ! A50   A(8,9,32)             109.2943         estimate D2E/DX2                !
 ! A51   A(8,9,33)             109.2942         estimate D2E/DX2                !
 ! A52   A(10,9,32)            109.2906         estimate D2E/DX2                !
 ! A53   A(10,9,33)            109.2905         estimate D2E/DX2                !
 ! A54   A(32,9,33)            107.2094         estimate D2E/DX2                !
 ! A55   A(9,10,11)            112.3331         estimate D2E/DX2                !
 ! A56   A(9,10,34)            109.2902         estimate D2E/DX2                !
 ! A57   A(9,10,35)            109.2902         estimate D2E/DX2                !
 ! A58   A(11,10,34)           109.2922         estimate D2E/DX2                !
 ! A59   A(11,10,35)           109.2923         estimate D2E/DX2                !
 ! A60   A(34,10,35)           107.2086         estimate D2E/DX2                !
 ! A61   A(10,11,12)           112.3295         estimate D2E/DX2                !
 ! A62   A(10,11,36)           109.2953         estimate D2E/DX2                !
 ! A63   A(10,11,37)           109.2953         estimate D2E/DX2                !
 ! A64   A(12,11,36)           109.2895         estimate D2E/DX2                !
 ! A65   A(12,11,37)           109.2895         estimate D2E/DX2                !
 ! A66   A(36,11,37)           107.2079         estimate D2E/DX2                !
 ! A67   A(11,12,13)           112.3461         estimate D2E/DX2                !
 ! A68   A(11,12,38)           109.3131         estimate D2E/DX2                !
 ! A69   A(11,12,39)           109.3131         estimate D2E/DX2                !
 ! A70   A(13,12,38)           109.2638         estimate D2E/DX2                !
 ! A71   A(13,12,39)           109.2638         estimate D2E/DX2                !
 ! A72   A(38,12,39)           107.2061         estimate D2E/DX2                !
 ! A73   A(12,13,14)           112.3614         estimate D2E/DX2                !
 ! A74   A(12,13,40)           109.2204         estimate D2E/DX2                !
 ! A75   A(12,13,41)           109.2204         estimate D2E/DX2                !
 ! A76   A(14,13,40)           109.3555         estimate D2E/DX2                !
 ! A77   A(14,13,41)           109.3555         estimate D2E/DX2                !
 ! A78   A(40,13,41)           107.1912         estimate D2E/DX2                !
 ! A79   A(13,14,42)           110.6763         estimate D2E/DX2                !
 ! A80   A(13,14,43)           110.6173         estimate D2E/DX2                !
 ! A81   A(13,14,44)           110.6763         estimate D2E/DX2                !
 ! A82   A(42,14,43)           108.2907         estimate D2E/DX2                !
 ! A83   A(42,14,44)           108.1993         estimate D2E/DX2                !
 ! A84   A(43,14,44)           108.2907         estimate D2E/DX2                !
 ! D1    D(15,1,2,3)          -179.9999         estimate D2E/DX2                !
 ! D2    D(15,1,2,18)           58.5465         estimate D2E/DX2                !
 ! D3    D(15,1,2,19)          -58.5464         estimate D2E/DX2                !
 ! D4    D(16,1,2,3)            59.9748         estimate D2E/DX2                !
 ! D5    D(16,1,2,18)          -61.4789         estimate D2E/DX2                !
 ! D6    D(16,1,2,19)         -178.5717         estimate D2E/DX2                !
 ! D7    D(17,1,2,3)           -59.9746         estimate D2E/DX2                !
 ! D8    D(17,1,2,18)          178.5718         estimate D2E/DX2                !
 ! D9    D(17,1,2,19)           61.4789         estimate D2E/DX2                !
 ! D10   D(1,2,3,4)           -179.9999         estimate D2E/DX2                !
 ! D11   D(1,2,3,20)            58.503          estimate D2E/DX2                !
 ! D12   D(1,2,3,21)           -58.5028         estimate D2E/DX2                !
 ! D13   D(18,2,3,4)           -58.4691         estimate D2E/DX2                !
 ! D14   D(18,2,3,20)         -179.9663         estimate D2E/DX2                !
 ! D15   D(18,2,3,21)           63.028          estimate D2E/DX2                !
 ! D16   D(19,2,3,4)            58.4693         estimate D2E/DX2                !
 ! D17   D(19,2,3,20)          -63.0278         estimate D2E/DX2                !
 ! D18   D(19,2,3,21)          179.9664         estimate D2E/DX2                !
 ! D19   D(2,3,4,5)            180.0            estimate D2E/DX2                !
 ! D20   D(2,3,4,22)            58.5186         estimate D2E/DX2                !
 ! D21   D(2,3,4,23)           -58.5186         estimate D2E/DX2                !
 ! D22   D(20,3,4,5)           -58.5311         estimate D2E/DX2                !
 ! D23   D(20,3,4,22)          179.9876         estimate D2E/DX2                !
 ! D24   D(20,3,4,23)           62.9503         estimate D2E/DX2                !
 ! D25   D(21,3,4,5)            58.5311         estimate D2E/DX2                !
 ! D26   D(21,3,4,22)          -62.9503         estimate D2E/DX2                !
 ! D27   D(21,3,4,23)         -179.9875         estimate D2E/DX2                !
 ! D28   D(3,4,5,6)           -179.9999         estimate D2E/DX2                !
 ! D29   D(3,4,5,24)            58.5208         estimate D2E/DX2                !
 ! D30   D(3,4,5,25)           -58.5206         estimate D2E/DX2                !
 ! D31   D(22,4,5,6)           -58.5218         estimate D2E/DX2                !
 ! D32   D(22,4,5,24)          179.9988         estimate D2E/DX2                !
 ! D33   D(22,4,5,25)           62.9574         estimate D2E/DX2                !
 ! D34   D(23,4,5,6)            58.522          estimate D2E/DX2                !
 ! D35   D(23,4,5,24)          -62.9573         estimate D2E/DX2                !
 ! D36   D(23,4,5,25)         -179.9987         estimate D2E/DX2                !
 ! D37   D(4,5,6,7)            179.9998         estimate D2E/DX2                !
 ! D38   D(4,5,6,26)            58.52           estimate D2E/DX2                !
 ! D39   D(4,5,6,27)           -58.5202         estimate D2E/DX2                !
 ! D40   D(24,5,6,7)           -58.5196         estimate D2E/DX2                !
 ! D41   D(24,5,6,26)         -179.9995         estimate D2E/DX2                !
 ! D42   D(24,5,6,27)           62.9603         estimate D2E/DX2                !
 ! D43   D(25,5,6,7)            58.5194         estimate D2E/DX2                !
 ! D44   D(25,5,6,26)          -62.9604         estimate D2E/DX2                !
 ! D45   D(25,5,6,27)          179.9993         estimate D2E/DX2                !
 ! D46   D(5,6,7,8)           -179.9998         estimate D2E/DX2                !
 ! D47   D(5,6,7,28)            58.5217         estimate D2E/DX2                !
 ! D48   D(5,6,7,29)           -58.5214         estimate D2E/DX2                !
 ! D49   D(26,6,7,8)           -58.5221         estimate D2E/DX2                !
 ! D50   D(26,6,7,28)          179.9994         estimate D2E/DX2                !
 ! D51   D(26,6,7,29)           62.9563         estimate D2E/DX2                !
 ! D52   D(27,6,7,8)            58.5224         estimate D2E/DX2                !
 ! D53   D(27,6,7,28)          -62.9562         estimate D2E/DX2                !
 ! D54   D(27,6,7,29)         -179.9993         estimate D2E/DX2                !
 ! D55   D(6,7,8,9)            179.9998         estimate D2E/DX2                !
 ! D56   D(6,7,8,30)            58.5196         estimate D2E/DX2                !
 ! D57   D(6,7,8,31)           -58.5199         estimate D2E/DX2                !
 ! D58   D(28,7,8,9)           -58.5199         estimate D2E/DX2                !
 ! D59   D(28,7,8,30)          179.9999         estimate D2E/DX2                !
 ! D60   D(28,7,8,31)           62.9604         estimate D2E/DX2                !
 ! D61   D(29,7,8,9)            58.5197         estimate D2E/DX2                !
 ! D62   D(29,7,8,30)          -62.9605         estimate D2E/DX2                !
 ! D63   D(29,7,8,31)          179.9999         estimate D2E/DX2                !
 ! D64   D(7,8,9,10)          -179.9998         estimate D2E/DX2                !
 ! D65   D(7,8,9,32)            58.5224         estimate D2E/DX2                !
 ! D66   D(7,8,9,33)           -58.5221         estimate D2E/DX2                !
 ! D67   D(30,8,9,10)          -58.5214         estimate D2E/DX2                !
 ! D68   D(30,8,9,32)         -179.9992         estimate D2E/DX2                !
 ! D69   D(30,8,9,33)           62.9563         estimate D2E/DX2                !
 ! D70   D(31,8,9,10)           58.5216         estimate D2E/DX2                !
 ! D71   D(31,8,9,32)          -62.9562         estimate D2E/DX2                !
 ! D72   D(31,8,9,33)          179.9993         estimate D2E/DX2                !
 ! D73   D(8,9,10,11)          179.9998         estimate D2E/DX2                !
 ! D74   D(8,9,10,34)           58.5194         estimate D2E/DX2                !
 ! D75   D(8,9,10,35)          -58.5196         estimate D2E/DX2                !
 ! D76   D(32,9,10,11)         -58.5202         estimate D2E/DX2                !
 ! D77   D(32,9,10,34)         179.9993         estimate D2E/DX2                !
 ! D78   D(32,9,10,35)          62.9603         estimate D2E/DX2                !
 ! D79   D(33,9,10,11)          58.52           estimate D2E/DX2                !
 ! D80   D(33,9,10,34)         -62.9604         estimate D2E/DX2                !
 ! D81   D(33,9,10,35)        -179.9994         estimate D2E/DX2                !
 ! D82   D(9,10,11,12)        -179.9999         estimate D2E/DX2                !
 ! D83   D(9,10,11,36)          58.5221         estimate D2E/DX2                !
 ! D84   D(9,10,11,37)         -58.5218         estimate D2E/DX2                !
 ! D85   D(34,10,11,12)        -58.5206         estimate D2E/DX2                !
 ! D86   D(34,10,11,36)       -179.9987         estimate D2E/DX2                !
 ! D87   D(34,10,11,37)         62.9574         estimate D2E/DX2                !
 ! D88   D(35,10,11,12)         58.5208         estimate D2E/DX2                !
 ! D89   D(35,10,11,36)        -62.9573         estimate D2E/DX2                !
 ! D90   D(35,10,11,37)        179.9988         estimate D2E/DX2                !
 ! D91   D(10,11,12,13)        180.0            estimate D2E/DX2                !
 ! D92   D(10,11,12,38)         58.531          estimate D2E/DX2                !
 ! D93   D(10,11,12,39)        -58.5311         estimate D2E/DX2                !
 ! D94   D(36,11,12,13)        -58.5187         estimate D2E/DX2                !
 ! D95   D(36,11,12,38)       -179.9876         estimate D2E/DX2                !
 ! D96   D(36,11,12,39)         62.9503         estimate D2E/DX2                !
 ! D97   D(37,11,12,13)         58.5186         estimate D2E/DX2                !
 ! D98   D(37,11,12,38)        -62.9503         estimate D2E/DX2                !
 ! D99   D(37,11,12,39)        179.9876         estimate D2E/DX2                !
 ! D100  D(11,12,13,14)       -179.9999         estimate D2E/DX2                !
 ! D101  D(11,12,13,40)         58.4693         estimate D2E/DX2                !
 ! D102  D(11,12,13,41)        -58.4691         estimate D2E/DX2                !
 ! D103  D(38,12,13,14)        -58.5028         estimate D2E/DX2                !
 ! D104  D(38,12,13,40)        179.9664         estimate D2E/DX2                !
 ! D105  D(38,12,13,41)         63.028          estimate D2E/DX2                !
 ! D106  D(39,12,13,14)         58.503          estimate D2E/DX2                !
 ! D107  D(39,12,13,40)        -63.0278         estimate D2E/DX2                !
 ! D108  D(39,12,13,41)       -179.9663         estimate D2E/DX2                !
 ! D109  D(12,13,14,42)        -59.9749         estimate D2E/DX2                !
 ! D110  D(12,13,14,43)        179.9998         estimate D2E/DX2                !
 ! D111  D(12,13,14,44)         59.9745         estimate D2E/DX2                !
 ! D112  D(40,13,14,42)         61.4787         estimate D2E/DX2                !
 ! D113  D(40,13,14,43)        -58.5466         estimate D2E/DX2                !
 ! D114  D(40,13,14,44)       -178.5719         estimate D2E/DX2                !
 ! D115  D(41,13,14,42)        178.5715         estimate D2E/DX2                !
 ! D116  D(41,13,14,43)         58.5462         estimate D2E/DX2                !
 ! D117  D(41,13,14,44)        -61.4791         estimate D2E/DX2                !
 --------------------------------------------------------------------------------
 Trust Radius=3.00D-01 FncErr=1.00D-07 GrdErr=1.00D-06
 Number of steps in this run=    254 maximum allowed number of steps=    264.
 GradGradGradGradGradGradGradGradGradGradGradGradGradGradGradGradGradGrad

                          Input orientation:                          
 ---------------------------------------------------------------------
 Center     Atomic      Atomic             Coordinates (Angstroms)
 Number     Number       Type             X           Y           Z
 ---------------------------------------------------------------------
      1          6           0        0.041512   -1.129923   -2.534823
      2          6           0        0.467026   -2.501866   -1.936695
      3          6           0        1.745162   -2.391327   -1.047661
      4          6           0        2.171658   -3.767665   -0.447892
      5          6           0        3.449804   -3.656685    0.441053
      6          6           0        3.876411   -5.033095    1.040913
      7          6           0        5.154593   -4.921983    1.929849
      8          6           0        5.581253   -6.298369    2.529737
      9          6           0        6.859437   -6.187261    3.418670
     10          6           0        7.286046   -7.563675    4.018520
     11          6           0        8.564199   -7.452705    4.907456
     12          6           0        8.990696   -8.829051    5.507208
     13          6           0       10.268840   -8.718526    6.396231
     14          6           0       10.694356  -10.090478    6.994337
     15          1           0       -0.860970   -1.240779   -3.155526
     16          1           0        0.844063   -0.714135   -3.163194
     17          1           0       -0.176932   -0.407479   -1.733466
     18          1           0        0.655677   -3.216096   -2.757234
     19          1           0       -0.361779   -2.910504   -1.332464
     20          1           0        1.557079   -1.677671   -0.226469
     21          1           0        2.574648   -1.983294   -1.651399
     22          1           0        2.359422   -4.481068   -1.269390
     23          1           0        1.341831   -4.175440    0.155569
     24          1           0        3.261996   -2.943262    1.262514
     25          1           0        4.279584   -3.248888   -0.162444
     26          1           0        4.064229   -5.746519    0.219454
     27          1           0        3.046638   -5.440892    1.644421
     28          1           0        4.966765   -4.208549    2.751296
     29          1           0        5.984351   -4.514173    1.326331
     30          1           0        5.769079   -7.011803    1.708289
     31          1           0        4.751495   -6.706180    3.133257
     32          1           0        6.671624   -5.473841    4.240133
     33          1           0        7.689208   -5.779463    2.815160
     34          1           0        7.473846   -8.277093    3.197054
     35          1           0        6.456269   -7.971474    4.622021
     36          1           0        8.376444   -6.739309    5.728962
     37          1           0        9.394021   -7.044928    4.303991
     38          1           0        9.178771   -9.542698    4.686006
     39          1           0        8.161214   -9.237087    6.110948
     40          1           0       10.080198   -8.004307    7.216781
     41          1           0       11.097641   -8.309881    5.791998
     42          1           0        9.891811  -10.506272    7.622711
     43          1           0       11.596846   -9.979634    7.615031
     44          1           0       10.912789  -10.812912    6.192967
 ---------------------------------------------------------------------
                    Distance matrix (angstroms):
                    1          2          3          4          5
     1  C    0.000000
     2  C    1.555972   0.000000
     3  C    2.589443   1.560843   0.000000
     4  C    3.981267   2.593174   1.560746   0.000000
     5  C    5.182356   3.985505   2.592914   1.560831   0.000000
     6  C    6.536596   5.186248   3.985386   2.593075   1.560875
     7  C    7.775385   6.540674   5.185944   3.985474   2.593029
     8  C    9.113250   7.779316   6.540516   5.186142   3.985495
     9  C   10.368455   9.117291   7.779013   6.540644   5.186099
    10  C   11.697125  10.372344   9.117059   7.779170   6.540611
    11  C   12.961531  11.701171  10.372089   9.117228   7.779175
    12  C   14.284212  12.965257  11.700784  10.372083   9.117060
    13  C   15.554705  14.288459  12.965264  11.701171  10.372349
    14  C   16.869485  15.554698  14.284213  12.961524  11.697126
    15  H    1.100924   2.199878   3.543837   4.786781   6.111853
    16  H    1.100826   2.200555   2.846126   4.296443   5.332831
    17  H    1.100826   2.200554   2.846125   4.296443   5.332831
    18  H    2.186042   1.104082   2.188574   2.817000   4.269695
    19  H    2.186042   1.104082   2.188574   2.817001   4.269696
    20  H    2.815221   2.189151   1.104100   2.189706   2.818597
    21  H    2.815219   2.189151   1.104100   2.189706   2.818597
    22  H    4.266638   2.818456   2.189405   1.104110   2.189556
    23  H    4.266640   2.818457   2.189406   1.104110   2.189556
    24  H    5.299008   4.271021   2.818214   2.189512   1.104102
    25  H    5.299004   4.271019   2.818211   2.189511   1.104102
    26  H    6.714257   5.302510   4.270944   2.818339   2.189527
    27  H    6.714263   5.302515   4.270948   2.818342   2.189528
    28  H    7.853605   6.718457   5.302179   4.271042   2.818324
    29  H    7.853598   6.718452   5.302173   4.271038   2.818321
    30  H    9.241511   7.857302   6.718331   5.302356   4.271035
    31  H    9.241521   7.857311   6.718338   5.302363   4.271039
    32  H   10.427273   9.245694   7.857015   6.718504   5.302375
    33  H   10.427262   9.245684   7.857006   6.718497   5.302369
    34  H   11.797290  10.430923   9.245413   7.857084   6.718380
    35  H   11.797302  10.430934   9.245423   7.857093   6.718387
    36  H   13.008706  11.801572  10.430794   9.245731   7.857247
    37  H   13.008693  11.801560  10.430783   9.245722   7.857239
    38  H   14.366790  13.012608  11.801508  10.431085   9.245855
    39  H   14.366803  13.012620  11.801519  10.431095   9.245863
    40  H   15.592503  14.369274  13.010741  11.800057  10.429498
    41  H   15.592490  14.369262  13.010730  11.800048  10.429490
    42  H   16.974092  15.629437  14.401235  13.043934  11.831843
    43  H   17.744370  16.462848  15.155207  13.872038  12.562640
    44  H   16.974076  15.629423  14.401222  13.043921  11.831832
                    6          7          8          9         10
     6  C    0.000000
     7  C    1.560866   0.000000
     8  C    2.593068   1.560879   0.000000
     9  C    3.985508   2.593069   1.560866   0.000000
    10  C    5.186096   3.985495   2.593028   1.560875   0.000000
    11  C    6.540643   5.186145   3.985474   2.593076   1.560831
    12  C    7.779009   6.540516   5.185941   3.985387   2.592913
    13  C    9.117290   7.779320   6.540673   5.186251   3.985505
    14  C   10.368450   9.113251   7.775382   6.536597   5.182354
    15  H    7.377977   8.694786   9.970139  11.282394  12.562636
    16  H    6.747079   7.888330   9.275457  10.462350  11.831837
    17  H    6.747080   7.888332   9.275461  10.462355  11.831844
    18  H    5.300994   6.717071   7.855811   9.244255  10.429481
    19  H    5.300996   6.717074   7.855816   9.244261  10.429489
    20  H    4.271350   5.302582   6.718743   7.857382   9.245866
    21  H    4.271349   5.302580   6.718738   7.857376   9.245859
    22  H    2.818420   4.271126   5.302466   6.718567   7.857231
    23  H    2.818422   4.271129   5.302471   6.718573   7.857239
    24  H    2.189524   2.818261   4.271013   5.302275   6.718390
    25  H    2.189523   2.818259   4.271009   5.302269   6.718382
    26  H    1.104103   2.189567   2.818388   4.271116   5.302364
    27  H    1.104103   2.189568   2.818390   4.271120   5.302370
    28  H    2.189557   1.104103   2.189528   2.818315   4.271041
    29  H    2.189556   1.104103   2.189527   2.818312   4.271037
    30  H    2.818309   2.189527   1.104103   2.189556   2.818319
    31  H    2.818312   2.189528   1.104103   2.189557   2.818321
    32  H    4.271121   2.818393   2.189568   1.104103   2.189528
    33  H    4.271117   2.818390   2.189568   1.104103   2.189527
    34  H    5.302264   4.271007   2.818256   2.189523   1.104102
    35  H    5.302270   4.271011   2.818259   2.189524   1.104102
    36  H    6.718576   5.302476   4.271131   2.818424   2.189556
    37  H    6.718569   5.302471   4.271128   2.818422   2.189556
    38  H    7.857369   6.718736   5.302575   4.271347   2.818595
    39  H    7.857375   6.718741   5.302578   4.271349   2.818596
    40  H    9.244264   7.855823   6.717076   5.301000   4.269697
    41  H    9.244258   7.855817   6.717073   5.300997   4.269696
    42  H   10.462349   9.275461   7.888329   6.747081   5.332830
    43  H   11.282392   9.970142   8.694785   7.377979   6.111852
    44  H   10.462340   9.275453   7.888322   6.747076   5.332826
                   11         12         13         14         15
    11  C    0.000000
    12  C    1.560746   0.000000
    13  C    2.593175   1.560843   0.000000
    14  C    3.981267   2.589442   1.555972   0.000000
    15  H   13.872040  15.155202  16.462850  17.744364   0.000000
    16  H   13.043934  14.401228  15.629437  16.974084   1.784531
    17  H   13.043942  14.401237  15.629447  16.974095   1.784531
    18  H   11.800044  13.010718  14.369257  15.592477   2.522049
    19  H   11.800053  13.010729  14.369269  15.592490   2.522049
    20  H   10.431104  11.801523  13.012631  14.366809   3.823246
    21  H   10.431095  11.801513  13.012620  14.366796   3.823245
    22  H    9.245718  10.430773  11.801555  13.008681   4.942459
    23  H    9.245728  10.430784  11.801566  13.008695   4.942461
    24  H    7.857100   9.245428  10.430943  11.797307   6.278246
    25  H    7.857091   9.245417  10.430932  11.797295   6.278243
    26  H    6.718494   7.856998   9.245680  10.427253   7.479957
    27  H    6.718501   7.857007   9.245690  10.427264   7.479963
    28  H    5.302368   6.718341   7.857318   9.241525   8.812531
    29  H    5.302361   6.718334   7.857309   9.241516   8.812524
    30  H    4.271037   5.302168   6.718449   7.853591  10.045843
    31  H    4.271041   5.302174   6.718455   7.853599  10.045853
    32  H    2.818344   4.270949   5.302519   6.714265  11.373414
    33  H    2.818341   4.270946   5.302514   6.714260  11.373403
    34  H    2.189511   2.818209   4.271017   5.299001  12.622763
    35  H    2.189512   2.818212   4.271020   5.299005  12.622775
    36  H    1.104110   2.189406   2.818459   4.266641  13.946245
    37  H    1.104110   2.189405   2.818458   4.266639  13.946232
    38  H    2.189705   1.104100   2.189151   2.815218  15.205522
    39  H    2.189706   1.104100   2.189151   2.815220  15.205535
    40  H    2.817002   2.188574   1.104082   2.186042  16.523898
    41  H    2.817001   2.188575   1.104082   2.186042  16.523885
    42  H    4.296444   2.846126   2.200554   1.100826  17.822515
    43  H    4.786782   3.543836   2.199879   1.100924  18.643220
    44  H    4.296441   2.846123   2.200554   1.100826  17.822499
                   16         17         18         19         20
    16  H    0.000000
    17  H    1.783422   0.000000
    18  H    2.541673   3.103170   0.000000
    19  H    3.103170   2.541673   1.777237   0.000000
    20  H    3.171931   2.625113   3.095811   2.534781   0.000000
    21  H    2.625113   3.171927   2.534782   3.095810   1.777436
    22  H    4.480244   4.821056   2.591636   3.142544   3.096849
    23  H    4.821058   4.480248   3.142542   2.591639   2.535968
    24  H    5.513828   5.218459   4.798511   4.457210   2.593364
    25  H    5.218456   5.513823   4.457208   4.798510   3.144019
    26  H    6.865615   7.092721   5.184779   5.480964   4.800018
    27  H    7.092724   6.865622   5.480965   5.184787   4.458795
    28  H    8.011791   7.811456   7.065008   6.837791   5.186365
    29  H    7.811446   8.011785   6.837783   7.065006   5.482488
    30  H    9.362038   9.529838   7.777864   7.978361   7.066626
    31  H    9.529844   9.362052   7.978364   7.777878   6.839441
    32  H   10.555781  10.404548   9.500114   9.332378   7.779460
    33  H   10.404532  10.555775   9.332362   9.500111   7.979926
    34  H   11.899795  12.032259  10.370856  10.522064   9.501632
    35  H   12.032265  11.899814  10.522066  10.370876   9.333909
    36  H   13.119067  12.997697  12.001616  11.869288  10.372612
    37  H   12.997676  13.119061  11.869268  12.001613  10.523791
    38  H   14.457553  14.566778  12.964214  13.085491  12.003385
    39  H   14.566782  14.457575  13.085491  12.964237  11.871067
    40  H   15.690656  15.589337  14.533738  14.424676  12.964253
    41  H   15.589314  15.690652  14.424653  14.533738  13.085507
    42  H   17.148861  17.055886  15.690637  15.589321  14.457578
    43  H   17.822512  17.822525  16.523876  16.523890  15.205546
    44  H   17.055858  17.148857  15.589293  15.690635  14.566781
                   21         22         23         24         25
    21  H    0.000000
    22  H    2.535967   0.000000
    23  H    3.096849   1.777472   0.000000
    24  H    3.144022   3.096776   2.535867   0.000000
    25  H    2.593361   2.535866   3.096776   1.777469   0.000000
    26  H    4.458789   2.593143   3.143854   3.096740   2.535820
    27  H    4.800020   3.143855   2.593148   2.535821   3.096740
    28  H    5.482491   4.799836   4.458591   2.593002   3.143732
    29  H    5.186357   4.458585   4.799835   3.143732   2.592996
    30  H    6.839429   5.186227   5.482373   4.799709   4.458449
    31  H    7.066629   5.482375   5.186239   4.458456   4.799709
    32  H    7.979929   7.066507   6.839312   5.186097   5.482240
    33  H    7.779446   6.839299   7.066506   5.482240   5.186085
    34  H    9.333892   7.779220   7.979711   7.066249   6.839034
    35  H    9.501635   7.979712   7.779237   6.839048   7.066249
    36  H   10.523794   9.501638   9.333911   7.779248   7.979722
    37  H   10.372592   9.333892   9.501638   7.979723   7.779231
    38  H   11.871046  10.372578  10.523780   9.501636   9.333893
    39  H   12.003385  10.523778  10.372598   9.333910   9.501633
    40  H   13.085507  12.001612  11.869287  10.370889  10.522077
    41  H   12.964230  11.869267  12.001615  10.522079  10.370870
    42  H   14.566782  13.119048  12.997684  11.899818  12.032263
    43  H   15.205532  13.946224  13.946238  12.622785  12.622772
    44  H   14.457553  12.997658  13.119049  12.032265  11.899795
                   26         27         28         29         30
    26  H    0.000000
    27  H    1.777478   0.000000
    28  H    3.096796   2.535888   0.000000
    29  H    2.535887   3.096796   1.777474   0.000000
    30  H    2.593085   3.143807   3.096741   2.535821   0.000000
    31  H    3.143808   2.593091   2.535822   3.096741   1.777474
    32  H    4.799866   4.458623   2.593095   3.143811   3.096796
    33  H    4.458616   4.799866   3.143811   2.593089   2.535887
    34  H    5.186077   5.482232   4.799709   4.458449   2.592993
    35  H    5.482232   5.186089   4.458457   4.799709   3.143729
    36  H    7.066506   6.839311   5.186246   5.482380   4.799834
    37  H    6.839298   7.066507   5.482382   5.186235   4.458584
    38  H    7.779435   7.979919   7.066629   6.839430   5.186350
    39  H    7.979916   7.779450   6.839442   7.066626   5.482482
    40  H    9.500109   9.332376   7.777888   7.978371   7.065005
    41  H    9.332361   9.500112   7.978373   7.777873   6.837782
    42  H   10.555765  10.404538   9.362055   9.529842   8.011780
    43  H   11.373396  11.373408  10.045860  10.045850   8.812518
    44  H   10.404517  10.555766   9.529844   9.362038   7.811435
                   31         32         33         34         35
    31  H    0.000000
    32  H    2.535888   0.000000
    33  H    3.096796   1.777478   0.000000
    34  H    3.143729   3.096740   2.535820   0.000000
    35  H    2.592998   2.535821   3.096740   1.777469   0.000000
    36  H    4.458591   2.593151   3.143857   3.096776   2.535867
    37  H    4.799835   3.143858   2.593146   2.535866   3.096776
    38  H    5.482485   4.800020   4.458789   2.593358   3.144020
    39  H    5.186359   4.458795   4.800018   3.144017   2.593361
    40  H    6.837790   5.184793   5.480970   4.798509   4.457210
    41  H    7.065007   5.480971   5.184785   4.457208   4.798511
    42  H    7.811450   6.865625   7.092723   5.513822   5.218457
    43  H    8.812527   7.479968   7.479961   6.278239   6.278244
    44  H    8.011780   7.092724   6.865615   5.218448   5.513821
                   36         37         38         39         40
    36  H    0.000000
    37  H    1.777472   0.000000
    38  H    3.096849   2.535967   0.000000
    39  H    2.535968   3.096849   1.777436   0.000000
    40  H    2.591641   3.142546   3.095810   2.534781   0.000000
    41  H    3.142544   2.591639   2.534782   3.095811   1.777237
    42  H    4.480249   4.821058   3.171929   2.625114   2.541672
    43  H    4.942464   4.942461   3.823243   3.823246   2.522051
    44  H    4.821057   4.480245   2.625108   3.171927   3.103170
                   41         42         43         44
    41  H    0.000000
    42  H    3.103170   0.000000
    43  H    2.522048   1.784531   0.000000
    44  H    2.541674   1.783422   1.784531   0.000000
 Stoichiometry    C14H30
 Framework group  C1[X(C14H30)]
 Deg. of freedom   126
 Full point group                 C1      NOp   1
 Largest Abelian subgroup         C1      NOp   1
 Largest concise Abelian subgroup C1      NOp   1
                         Standard orientation:                         
 ---------------------------------------------------------------------
 Center     Atomic      Atomic             Coordinates (Angstroms)
 Number     Number       Type             X           Y           Z
 ---------------------------------------------------------------------
      1          6           0       -8.428333    0.328779   -0.000023
      2          6           0       -7.125175   -0.521413   -0.000013
      3          6           0       -5.839117    0.363057   -0.000005
      4          6           0       -4.532190   -0.490097    0.000003
      5          6           0       -3.246397    0.394736    0.000010
      6          6           0       -1.939310   -0.458407    0.000014
      7          6           0       -0.653563    0.426555    0.000017
      8          6           0        0.653562   -0.426537    0.000017
      9          6           0        1.939311    0.458423    0.000014
     10          6           0        3.246395   -0.394726    0.000010
     11          6           0        4.532193    0.490101    0.000003
     12          6           0        5.839115   -0.363061   -0.000005
     13          6           0        7.125179    0.521399   -0.000013
     14          6           0        8.428330   -0.328805   -0.000023
     15          1           0       -9.316032   -0.322392   -0.000027
     16          1           0       -8.472269    0.972779   -0.891736
     17          1           0       -8.472280    0.972783    0.891686
     18          1           0       -7.115703   -1.176597   -0.888630
     19          1           0       -7.115715   -1.176594    0.888607
     20          1           0       -5.847561    1.018150    0.888713
     21          1           0       -5.847550    1.018149   -0.888724
     22          1           0       -4.524257   -1.145187   -0.888733
     23          1           0       -4.524266   -1.145187    0.888739
     24          1           0       -3.254390    1.049815    0.888745
     25          1           0       -3.254383    1.049816   -0.888725
     26          1           0       -1.931308   -1.113481   -0.888725
     27          1           0       -1.931312   -1.113481    0.888754
     28          1           0       -0.661584    1.081631    0.888754
     29          1           0       -0.661582    1.081631   -0.888720
     30          1           0        0.661581   -1.081614   -0.888720
     31          1           0        0.661583   -1.081613    0.888754
     32          1           0        1.931315    1.113496    0.888754
     33          1           0        1.931311    1.113496   -0.888725
     34          1           0        3.254378   -1.049805   -0.888724
     35          1           0        3.254386   -1.049805    0.888745
     36          1           0        4.524273    1.145191    0.888739
     37          1           0        4.524263    1.145191   -0.888733
     38          1           0        5.847543   -1.018153   -0.888724
     39          1           0        5.847553   -1.018154    0.888713
     40          1           0        7.115724    1.176580    0.888607
     41          1           0        7.115712    1.176583   -0.888630
     42          1           0        8.472274   -0.972805    0.891688
     43          1           0        9.316035    0.322359   -0.000032
     44          1           0        8.472258   -0.972808   -0.891733
 ---------------------------------------------------------------------
 Rotational constants (GHZ):      5.8269641      0.0909180      0.0902344
 Standard basis: STO-3G (5D, 7F)
 There are   100 symmetry adapted cartesian basis functions of A   symmetry.
 There are   100 symmetry adapted basis functions of A   symmetry.
   100 basis functions,   300 primitive gaussians,   100 cartesian basis functions
    57 alpha electrons       57 beta electrons
       nuclear repulsion energy       821.8029861526 Hartrees.
 NAtoms=   44 NActive=   44 NUniq=   44 SFac= 1.00D+00 NAtFMM=   60 NAOKFM=F Big=F
 Integral buffers will be    131072 words long.
 Raffenetti 2 integral format.
 Two-electron integral symmetry is turned on.
 One-electron integrals computed using PRISM.
 NBasis=   100 RedAO= T EigKep=  2.09D-01  NBF=   100
 NBsUse=   100 1.00D-06 EigRej= -1.00D+00 NBFU=   100
 ExpMin= 1.69D-01 ExpMax= 7.16D+01 ExpMxC= 7.16D+01 IAcc=1 IRadAn=         1 AccDes= 0.00D+00
 Harris functional with IExCor=  402 and IRadAn=       1 diagonalized for initial guess.
 HarFok:  IExCor=  402 AccDes= 0.00D+00 IRadAn=         1 IDoV= 1 UseB2=F ITyADJ=14
 ICtDFT=  3500011 ScaDFX=  1.000000  1.000000  1.000000  1.000000
 FoFCou: FMM=F IPFlag=           0 FMFlag=      100000 FMFlg1=           0
         NFxFlg=           0 DoJE=T BraDBF=F KetDBF=T FulRan=T
         wScrn=  0.000000 ICntrl=     500 IOpCl=  0 I1Cent=   200000004 NGrid=           0
         NMat0=    1 NMatS0=      1 NMatT0=    0 NMatD0=    1 NMtDS0=    0 NMtDT0=    0
 Petite list used in FoFCou.
 Keep R1 ints in memory in canonical form, NReq=13731069.
 Requested convergence on RMS density matrix=1.00D-08 within 128 cycles.
 Requested convergence on MAX density matrix=1.00D-06.
 Requested convergence on             energy=1.00D-06.
 No special actions if energy rises.
 Integral accuracy reduced to 1.0D-05 until final iterations.
 Initial convergence to 1.0D-05 achieved.  Increase integral accuracy.
 SCF Done:  E(RB3LYP) =  -545.063902031     A.U. after   10 cycles
            NFock= 10  Conv=0.30D-08     -V/T= 2.0184

 **********************************************************************

            Population analysis using the SCF density.

 **********************************************************************

 Orbital symmetries:
       Occupied  (A) (A) (A) (A) (A) (A) (A) (A) (A) (A) (A) (A)
                 (A) (A) (A) (A) (A) (A) (A) (A) (A) (A) (A) (A)
                 (A) (A) (A) (A) (A) (A) (A) (A) (A) (A) (A) (A)
                 (A) (A) (A) (A) (A) (A) (A) (A) (A) (A) (A) (A)
                 (A) (A) (A) (A) (A) (A) (A) (A) (A)
       Virtual   (A) (A) (A) (A) (A) (A) (A) (A) (A) (A) (A) (A)
                 (A) (A) (A) (A) (A) (A) (A) (A) (A) (A) (A) (A)
                 (A) (A) (A) (A) (A) (A) (A) (A) (A) (A) (A) (A)
                 (A) (A) (A) (A) (A) (A) (A)
 The electronic state is 1-A.
 Alpha  occ. eigenvalues --  -10.00711 -10.00711 -10.00457 -10.00450 -10.00431
 Alpha  occ. eigenvalues --  -10.00408 -10.00383 -10.00356 -10.00328 -10.00301
 Alpha  occ. eigenvalues --  -10.00277 -10.00255  -9.99960  -9.99960  -0.76522
 Alpha  occ. eigenvalues --   -0.75723  -0.74374  -0.72498  -0.70131  -0.67327
 Alpha  occ. eigenvalues --   -0.64173  -0.60823  -0.57573  -0.54998  -0.54222
 Alpha  occ. eigenvalues --   -0.53954  -0.53450  -0.53384  -0.44710  -0.43958
 Alpha  occ. eigenvalues --   -0.42716  -0.41049  -0.39054  -0.38852  -0.38590
 Alpha  occ. eigenvalues --   -0.37123  -0.36910  -0.36868  -0.34975  -0.34661
 Alpha  occ. eigenvalues --   -0.34033  -0.32933  -0.32621  -0.31114  -0.30914
 Alpha  occ. eigenvalues --   -0.30075  -0.29647  -0.29608  -0.28841  -0.28542
 Alpha  occ. eigenvalues --   -0.28429  -0.28277  -0.28260  -0.27895  -0.27545
 Alpha  occ. eigenvalues --   -0.26301  -0.23534
 Alpha virt. eigenvalues --    0.30503   0.33596   0.35542   0.36425   0.37761
 Alpha virt. eigenvalues --    0.37826   0.38310   0.38321   0.38720   0.39580
 Alpha virt. eigenvalues --    0.39609   0.41036   0.41618   0.42081   0.43042
 Alpha virt. eigenvalues --    0.43696   0.45256   0.45725   0.45966   0.47083
 Alpha virt. eigenvalues --    0.47637   0.47677   0.47699   0.48035   0.48389
 Alpha virt. eigenvalues --    0.48770   0.49389   0.49431   0.49471   0.49521
 Alpha virt. eigenvalues --    0.50501   0.50527   0.50763   0.51137   0.51154
 Alpha virt. eigenvalues --    0.51566   0.52075   0.52589   0.52731   0.52756
 Alpha virt. eigenvalues --    0.54228   0.55432   0.56236
          Condensed to atoms (all electrons):
               1          2          3          4          5          6
     1  C    4.785620   0.359429  -0.019945   0.000600  -0.000004   0.000000
     2  C    0.359429   4.776193   0.358316  -0.019059   0.000585  -0.000003
     3  C   -0.019945   0.358316   4.788054   0.358165  -0.018994   0.000584
     4  C    0.000600  -0.019059   0.358165   4.788189   0.358065  -0.018992
     5  C   -0.000004   0.000585  -0.018994   0.358065   4.788145   0.358021
     6  C    0.000000  -0.000003   0.000584  -0.018992   0.358021   4.788208
     7  C    0.000000   0.000000  -0.000003   0.000584  -0.018990   0.358026
     8  C    0.000000   0.000000   0.000000  -0.000003   0.000584  -0.018988
     9  C    0.000000   0.000000   0.000000   0.000000  -0.000003   0.000584
    10  C    0.000000   0.000000   0.000000   0.000000   0.000000  -0.000003
    11  C    0.000000   0.000000   0.000000   0.000000   0.000000   0.000000
    12  C    0.000000   0.000000   0.000000   0.000000   0.000000   0.000000
    13  C    0.000000   0.000000   0.000000   0.000000   0.000000   0.000000
    14  C    0.000000   0.000000   0.000000   0.000000   0.000000   0.000000
    15  H    0.379545  -0.018568   0.001146  -0.000013   0.000000   0.000000
    16  H    0.379494  -0.019570  -0.001954   0.000006   0.000000   0.000000
    17  H    0.379494  -0.019570  -0.001954   0.000006   0.000000   0.000000
    18  H   -0.021188   0.378131  -0.021337  -0.001942   0.000004   0.000000
    19  H   -0.021187   0.378131  -0.021337  -0.001942   0.000004   0.000000
    20  H   -0.001921  -0.021238   0.377532  -0.021209  -0.001945   0.000005
    21  H   -0.001921  -0.021238   0.377532  -0.021209  -0.001945   0.000005
    22  H    0.000005  -0.001947  -0.021230   0.377509  -0.021217  -0.001945
    23  H    0.000005  -0.001947  -0.021230   0.377509  -0.021217  -0.001945
    24  H    0.000000   0.000005  -0.001946  -0.021228   0.377523  -0.021225
    25  H    0.000000   0.000005  -0.001946  -0.021228   0.377523  -0.021225
    26  H    0.000000   0.000000   0.000005  -0.001945  -0.021227   0.377521
    27  H    0.000000   0.000000   0.000005  -0.001945  -0.021227   0.377521
    28  H    0.000000   0.000000   0.000000   0.000005  -0.001945  -0.021226
    29  H    0.000000   0.000000   0.000000   0.000005  -0.001945  -0.021226
    30  H    0.000000   0.000000   0.000000   0.000000   0.000005  -0.001945
    31  H    0.000000   0.000000   0.000000   0.000000   0.000005  -0.001945
    32  H    0.000000   0.000000   0.000000   0.000000   0.000000   0.000005
    33  H    0.000000   0.000000   0.000000   0.000000   0.000000   0.000005
    34  H    0.000000   0.000000   0.000000   0.000000   0.000000   0.000000
    35  H    0.000000   0.000000   0.000000   0.000000   0.000000   0.000000
    36  H    0.000000   0.000000   0.000000   0.000000   0.000000   0.000000
    37  H    0.000000   0.000000   0.000000   0.000000   0.000000   0.000000
    38  H    0.000000   0.000000   0.000000   0.000000   0.000000   0.000000
    39  H    0.000000   0.000000   0.000000   0.000000   0.000000   0.000000
    40  H    0.000000   0.000000   0.000000   0.000000   0.000000   0.000000
    41  H    0.000000   0.000000   0.000000   0.000000   0.000000   0.000000
    42  H    0.000000   0.000000   0.000000   0.000000   0.000000   0.000000
    43  H    0.000000   0.000000   0.000000   0.000000   0.000000   0.000000
    44  H    0.000000   0.000000   0.000000   0.000000   0.000000   0.000000
               7          8          9         10         11         12
     1  C    0.000000   0.000000   0.000000   0.000000   0.000000   0.000000
     2  C    0.000000   0.000000   0.000000   0.000000   0.000000   0.000000
     3  C   -0.000003   0.000000   0.000000   0.000000   0.000000   0.000000
     4  C    0.000584  -0.000003   0.000000   0.000000   0.000000   0.000000
     5  C   -0.018990   0.000584  -0.000003   0.000000   0.000000   0.000000
     6  C    0.358026  -0.018988   0.000584  -0.000003   0.000000   0.000000
     7  C    4.788213   0.358014  -0.018988   0.000584  -0.000003   0.000000
     8  C    0.358014   4.788213   0.358026  -0.018990   0.000584  -0.000003
     9  C   -0.018988   0.358026   4.788208   0.358021  -0.018992   0.000584
    10  C    0.000584  -0.018990   0.358021   4.788145   0.358065  -0.018994
    11  C   -0.000003   0.000584  -0.018992   0.358065   4.788189   0.358165
    12  C    0.000000  -0.000003   0.000584  -0.018994   0.358165   4.788054
    13  C    0.000000   0.000000  -0.000003   0.000585  -0.019059   0.358316
    14  C    0.000000   0.000000   0.000000  -0.000004   0.000600  -0.019945
    15  H    0.000000   0.000000   0.000000   0.000000   0.000000   0.000000
    16  H    0.000000   0.000000   0.000000   0.000000   0.000000   0.000000
    17  H    0.000000   0.000000   0.000000   0.000000   0.000000   0.000000
    18  H    0.000000   0.000000   0.000000   0.000000   0.000000   0.000000
    19  H    0.000000   0.000000   0.000000   0.000000   0.000000   0.000000
    20  H    0.000000   0.000000   0.000000   0.000000   0.000000   0.000000
    21  H    0.000000   0.000000   0.000000   0.000000   0.000000   0.000000
    22  H    0.000005   0.000000   0.000000   0.000000   0.000000   0.000000
    23  H    0.000005   0.000000   0.000000   0.000000   0.000000   0.000000
    24  H   -0.001946   0.000005   0.000000   0.000000   0.000000   0.000000
    25  H   -0.001946   0.000005   0.000000   0.000000   0.000000   0.000000
    26  H   -0.021224  -0.001945   0.000005   0.000000   0.000000   0.000000
    27  H   -0.021224  -0.001945   0.000005   0.000000   0.000000   0.000000
    28  H    0.377521  -0.021226  -0.001945   0.000005   0.000000   0.000000
    29  H    0.377521  -0.021227  -0.001945   0.000005   0.000000   0.000000
    30  H   -0.021227   0.377521  -0.021226  -0.001945   0.000005   0.000000
    31  H   -0.021227   0.377521  -0.021226  -0.001945   0.000005   0.000000
    32  H   -0.001945  -0.021224   0.377521  -0.021227  -0.001945   0.000005
    33  H   -0.001945  -0.021224   0.377521  -0.021227  -0.001945   0.000005
    34  H    0.000005  -0.001946  -0.021225   0.377523  -0.021228  -0.001946
    35  H    0.000005  -0.001946  -0.021225   0.377523  -0.021228  -0.001946
    36  H    0.000000   0.000005  -0.001945  -0.021217   0.377509  -0.021230
    37  H    0.000000   0.000005  -0.001945  -0.021217   0.377509  -0.021230
    38  H    0.000000   0.000000   0.000005  -0.001945  -0.021209   0.377532
    39  H    0.000000   0.000000   0.000005  -0.001945  -0.021209   0.377532
    40  H    0.000000   0.000000   0.000000   0.000004  -0.001942  -0.021337
    41  H    0.000000   0.000000   0.000000   0.000004  -0.001942  -0.021337
    42  H    0.000000   0.000000   0.000000   0.000000   0.000006  -0.001954
    43  H    0.000000   0.000000   0.000000   0.000000  -0.000013   0.001146
    44  H    0.000000   0.000000   0.000000   0.000000   0.000006  -0.001954
              13         14         15         16         17         18
     1  C    0.000000   0.000000   0.379545   0.379494   0.379494  -0.021188
     2  C    0.000000   0.000000  -0.018568  -0.019570  -0.019570   0.378131
     3  C    0.000000   0.000000   0.001146  -0.001954  -0.001954  -0.021337
     4  C    0.000000   0.000000  -0.000013   0.000006   0.000006  -0.001942
     5  C    0.000000   0.000000   0.000000   0.000000   0.000000   0.000004
     6  C    0.000000   0.000000   0.000000   0.000000   0.000000   0.000000
     7  C    0.000000   0.000000   0.000000   0.000000   0.000000   0.000000
     8  C    0.000000   0.000000   0.000000   0.000000   0.000000   0.000000
     9  C   -0.000003   0.000000   0.000000   0.000000   0.000000   0.000000
    10  C    0.000585  -0.000004   0.000000   0.000000   0.000000   0.000000
    11  C   -0.019059   0.000600   0.000000   0.000000   0.000000   0.000000
    12  C    0.358316  -0.019945   0.000000   0.000000   0.000000   0.000000
    13  C    4.776193   0.359429   0.000000   0.000000   0.000000   0.000000
    14  C    0.359429   4.785620   0.000000   0.000000   0.000000   0.000000
    15  H    0.000000   0.000000   0.612461  -0.020909  -0.020909  -0.002052
    16  H    0.000000   0.000000  -0.020909   0.613508  -0.021156  -0.002171
    17  H    0.000000   0.000000  -0.020909  -0.021156   0.613508   0.001807
    18  H    0.000000   0.000000  -0.002052  -0.002171   0.001807   0.625070
    19  H    0.000000   0.000000  -0.002052   0.001807  -0.002171  -0.022909
    20  H    0.000000   0.000000   0.000006  -0.000012   0.000534   0.001817
    21  H    0.000000   0.000000   0.000006   0.000534  -0.000012  -0.002204
    22  H    0.000000   0.000000   0.000000   0.000002   0.000000   0.000541
    23  H    0.000000   0.000000   0.000000   0.000000   0.000002  -0.000002
    24  H    0.000000   0.000000   0.000000   0.000000   0.000000   0.000000
    25  H    0.000000   0.000000   0.000000   0.000000   0.000000   0.000002
    26  H    0.000000   0.000000   0.000000   0.000000   0.000000   0.000000
    27  H    0.000000   0.000000   0.000000   0.000000   0.000000   0.000000
    28  H    0.000000   0.000000   0.000000   0.000000   0.000000   0.000000
    29  H    0.000000   0.000000   0.000000   0.000000   0.000000   0.000000
    30  H    0.000000   0.000000   0.000000   0.000000   0.000000   0.000000
    31  H    0.000000   0.000000   0.000000   0.000000   0.000000   0.000000
    32  H    0.000000   0.000000   0.000000   0.000000   0.000000   0.000000
    33  H    0.000000   0.000000   0.000000   0.000000   0.000000   0.000000
    34  H    0.000005   0.000000   0.000000   0.000000   0.000000   0.000000
    35  H    0.000005   0.000000   0.000000   0.000000   0.000000   0.000000
    36  H   -0.001947   0.000005   0.000000   0.000000   0.000000   0.000000
    37  H   -0.001947   0.000005   0.000000   0.000000   0.000000   0.000000
    38  H   -0.021238  -0.001921   0.000000   0.000000   0.000000   0.000000
    39  H   -0.021238  -0.001921   0.000000   0.000000   0.000000   0.000000
    40  H    0.378131  -0.021187   0.000000   0.000000   0.000000   0.000000
    41  H    0.378131  -0.021187   0.000000   0.000000   0.000000   0.000000
    42  H   -0.019570   0.379494   0.000000   0.000000   0.000000   0.000000
    43  H   -0.018568   0.379545   0.000000   0.000000   0.000000   0.000000
    44  H   -0.019570   0.379494   0.000000   0.000000   0.000000   0.000000
              19         20         21         22         23         24
     1  C   -0.021187  -0.001921  -0.001921   0.000005   0.000005   0.000000
     2  C    0.378131  -0.021238  -0.021238  -0.001947  -0.001947   0.000005
     3  C   -0.021337   0.377532   0.377532  -0.021230  -0.021230  -0.001946
     4  C   -0.001942  -0.021209  -0.021209   0.377509   0.377509  -0.021228
     5  C    0.000004  -0.001945  -0.001945  -0.021217  -0.021217   0.377523
     6  C    0.000000   0.000005   0.000005  -0.001945  -0.001945  -0.021225
     7  C    0.000000   0.000000   0.000000   0.000005   0.000005  -0.001946
     8  C    0.000000   0.000000   0.000000   0.000000   0.000000   0.000005
     9  C    0.000000   0.000000   0.000000   0.000000   0.000000   0.000000
    10  C    0.000000   0.000000   0.000000   0.000000   0.000000   0.000000
    11  C    0.000000   0.000000   0.000000   0.000000   0.000000   0.000000
    12  C    0.000000   0.000000   0.000000   0.000000   0.000000   0.000000
    13  C    0.000000   0.000000   0.000000   0.000000   0.000000   0.000000
    14  C    0.000000   0.000000   0.000000   0.000000   0.000000   0.000000
    15  H   -0.002052   0.000006   0.000006   0.000000   0.000000   0.000000
    16  H    0.001807  -0.000012   0.000534   0.000002   0.000000   0.000000
    17  H   -0.002171   0.000534  -0.000012   0.000000   0.000002   0.000000
    18  H   -0.022909   0.001817  -0.002204   0.000541  -0.000002   0.000000
    19  H    0.625070  -0.002204   0.001817  -0.000002   0.000541   0.000002
    20  H   -0.002204   0.626462  -0.022995   0.001812  -0.002193   0.000533
    21  H    0.001817  -0.022995   0.626462  -0.002193   0.001812  -0.000001
    22  H   -0.000002   0.001812  -0.002193   0.626609  -0.023012   0.001812
    23  H    0.000541  -0.002193   0.001812  -0.023012   0.626609  -0.002195
    24  H    0.000002   0.000533  -0.000001   0.001812  -0.002195   0.626573
    25  H    0.000000  -0.000001   0.000533  -0.002195   0.001812  -0.023008
    26  H    0.000000   0.000000   0.000002   0.000534  -0.000001   0.001812
    27  H    0.000000   0.000002   0.000000  -0.000001   0.000534  -0.002195
    28  H    0.000000   0.000000   0.000000   0.000000   0.000002   0.000534
    29  H    0.000000   0.000000   0.000000   0.000002   0.000000  -0.000001
    30  H    0.000000   0.000000   0.000000   0.000000   0.000000   0.000000
    31  H    0.000000   0.000000   0.000000   0.000000   0.000000   0.000002
    32  H    0.000000   0.000000   0.000000   0.000000   0.000000   0.000000
    33  H    0.000000   0.000000   0.000000   0.000000   0.000000   0.000000
    34  H    0.000000   0.000000   0.000000   0.000000   0.000000   0.000000
    35  H    0.000000   0.000000   0.000000   0.000000   0.000000   0.000000
    36  H    0.000000   0.000000   0.000000   0.000000   0.000000   0.000000
    37  H    0.000000   0.000000   0.000000   0.000000   0.000000   0.000000
    38  H    0.000000   0.000000   0.000000   0.000000   0.000000   0.000000
    39  H    0.000000   0.000000   0.000000   0.000000   0.000000   0.000000
    40  H    0.000000   0.000000   0.000000   0.000000   0.000000   0.000000
    41  H    0.000000   0.000000   0.000000   0.000000   0.000000   0.000000
    42  H    0.000000   0.000000   0.000000   0.000000   0.000000   0.000000
    43  H    0.000000   0.000000   0.000000   0.000000   0.000000   0.000000
    44  H    0.000000   0.000000   0.000000   0.000000   0.000000   0.000000
              25         26         27         28         29         30
     1  C    0.000000   0.000000   0.000000   0.000000   0.000000   0.000000
     2  C    0.000005   0.000000   0.000000   0.000000   0.000000   0.000000
     3  C   -0.001946   0.000005   0.000005   0.000000   0.000000   0.000000
     4  C   -0.021228  -0.001945  -0.001945   0.000005   0.000005   0.000000
     5  C    0.377523  -0.021227  -0.021227  -0.001945  -0.001945   0.000005
     6  C   -0.021225   0.377521   0.377521  -0.021226  -0.021226  -0.001945
     7  C   -0.001946  -0.021224  -0.021224   0.377521   0.377521  -0.021227
     8  C    0.000005  -0.001945  -0.001945  -0.021226  -0.021227   0.377521
     9  C    0.000000   0.000005   0.000005  -0.001945  -0.001945  -0.021226
    10  C    0.000000   0.000000   0.000000   0.000005   0.000005  -0.001945
    11  C    0.000000   0.000000   0.000000   0.000000   0.000000   0.000005
    12  C    0.000000   0.000000   0.000000   0.000000   0.000000   0.000000
    13  C    0.000000   0.000000   0.000000   0.000000   0.000000   0.000000
    14  C    0.000000   0.000000   0.000000   0.000000   0.000000   0.000000
    15  H    0.000000   0.000000   0.000000   0.000000   0.000000   0.000000
    16  H    0.000000   0.000000   0.000000   0.000000   0.000000   0.000000
    17  H    0.000000   0.000000   0.000000   0.000000   0.000000   0.000000
    18  H    0.000002   0.000000   0.000000   0.000000   0.000000   0.000000
    19  H    0.000000   0.000000   0.000000   0.000000   0.000000   0.000000
    20  H   -0.000001   0.000000   0.000002   0.000000   0.000000   0.000000
    21  H    0.000533   0.000002   0.000000   0.000000   0.000000   0.000000
    22  H   -0.002195   0.000534  -0.000001   0.000000   0.000002   0.000000
    23  H    0.001812  -0.000001   0.000534   0.000002   0.000000   0.000000
    24  H   -0.023008   0.001812  -0.002195   0.000534  -0.000001   0.000000
    25  H    0.626573  -0.002195   0.001812  -0.000001   0.000534   0.000002
    26  H   -0.002195   0.626592  -0.023010   0.001812  -0.002194   0.000534
    27  H    0.001812  -0.023010   0.626592  -0.002194   0.001812  -0.000001
    28  H   -0.000001   0.001812  -0.002194   0.626594  -0.023010   0.001812
    29  H    0.000534  -0.002194   0.001812  -0.023010   0.626594  -0.002195
    30  H    0.000002   0.000534  -0.000001   0.001812  -0.002195   0.626594
    31  H    0.000000  -0.000001   0.000534  -0.002195   0.001812  -0.023010
    32  H    0.000000   0.000000   0.000002   0.000534  -0.000001   0.001812
    33  H    0.000000   0.000002   0.000000  -0.000001   0.000534  -0.002194
    34  H    0.000000   0.000000   0.000000   0.000000   0.000002   0.000534
    35  H    0.000000   0.000000   0.000000   0.000002   0.000000  -0.000001
    36  H    0.000000   0.000000   0.000000   0.000000   0.000000   0.000000
    37  H    0.000000   0.000000   0.000000   0.000000   0.000000   0.000002
    38  H    0.000000   0.000000   0.000000   0.000000   0.000000   0.000000
    39  H    0.000000   0.000000   0.000000   0.000000   0.000000   0.000000
    40  H    0.000000   0.000000   0.000000   0.000000   0.000000   0.000000
    41  H    0.000000   0.000000   0.000000   0.000000   0.000000   0.000000
    42  H    0.000000   0.000000   0.000000   0.000000   0.000000   0.000000
    43  H    0.000000   0.000000   0.000000   0.000000   0.000000   0.000000
    44  H    0.000000   0.000000   0.000000   0.000000   0.000000   0.000000
              31         32         33         34         35         36
     1  C    0.000000   0.000000   0.000000   0.000000   0.000000   0.000000
     2  C    0.000000   0.000000   0.000000   0.000000   0.000000   0.000000
     3  C    0.000000   0.000000   0.000000   0.000000   0.000000   0.000000
     4  C    0.000000   0.000000   0.000000   0.000000   0.000000   0.000000
     5  C    0.000005   0.000000   0.000000   0.000000   0.000000   0.000000
     6  C   -0.001945   0.000005   0.000005   0.000000   0.000000   0.000000
     7  C   -0.021227  -0.001945  -0.001945   0.000005   0.000005   0.000000
     8  C    0.377521  -0.021224  -0.021224  -0.001946  -0.001946   0.000005
     9  C   -0.021226   0.377521   0.377521  -0.021225  -0.021225  -0.001945
    10  C   -0.001945  -0.021227  -0.021227   0.377523   0.377523  -0.021217
    11  C    0.000005  -0.001945  -0.001945  -0.021228  -0.021228   0.377509
    12  C    0.000000   0.000005   0.000005  -0.001946  -0.001946  -0.021230
    13  C    0.000000   0.000000   0.000000   0.000005   0.000005  -0.001947
    14  C    0.000000   0.000000   0.000000   0.000000   0.000000   0.000005
    15  H    0.000000   0.000000   0.000000   0.000000   0.000000   0.000000
    16  H    0.000000   0.000000   0.000000   0.000000   0.000000   0.000000
    17  H    0.000000   0.000000   0.000000   0.000000   0.000000   0.000000
    18  H    0.000000   0.000000   0.000000   0.000000   0.000000   0.000000
    19  H    0.000000   0.000000   0.000000   0.000000   0.000000   0.000000
    20  H    0.000000   0.000000   0.000000   0.000000   0.000000   0.000000
    21  H    0.000000   0.000000   0.000000   0.000000   0.000000   0.000000
    22  H    0.000000   0.000000   0.000000   0.000000   0.000000   0.000000
    23  H    0.000000   0.000000   0.000000   0.000000   0.000000   0.000000
    24  H    0.000002   0.000000   0.000000   0.000000   0.000000   0.000000
    25  H    0.000000   0.000000   0.000000   0.000000   0.000000   0.000000
    26  H   -0.000001   0.000000   0.000002   0.000000   0.000000   0.000000
    27  H    0.000534   0.000002   0.000000   0.000000   0.000000   0.000000
    28  H   -0.002195   0.000534  -0.000001   0.000000   0.000002   0.000000
    29  H    0.001812  -0.000001   0.000534   0.000002   0.000000   0.000000
    30  H   -0.023010   0.001812  -0.002194   0.000534  -0.000001   0.000000
    31  H    0.626594  -0.002194   0.001812  -0.000001   0.000534   0.000002
    32  H   -0.002194   0.626592  -0.023010   0.001812  -0.002195   0.000534
    33  H    0.001812  -0.023010   0.626592  -0.002195   0.001812  -0.000001
    34  H   -0.000001   0.001812  -0.002195   0.626573  -0.023008   0.001812
    35  H    0.000534  -0.002195   0.001812  -0.023008   0.626573  -0.002195
    36  H    0.000002   0.000534  -0.000001   0.001812  -0.002195   0.626609
    37  H    0.000000  -0.000001   0.000534  -0.002195   0.001812  -0.023012
    38  H    0.000000   0.000000   0.000002   0.000533  -0.000001   0.001812
    39  H    0.000000   0.000002   0.000000  -0.000001   0.000533  -0.002193
    40  H    0.000000   0.000000   0.000000   0.000000   0.000002   0.000541
    41  H    0.000000   0.000000   0.000000   0.000002   0.000000  -0.000002
    42  H    0.000000   0.000000   0.000000   0.000000   0.000000   0.000002
    43  H    0.000000   0.000000   0.000000   0.000000   0.000000   0.000000
    44  H    0.000000   0.000000   0.000000   0.000000   0.000000   0.000000
              37         38         39         40         41         42
     1  C    0.000000   0.000000   0.000000   0.000000   0.000000   0.000000
     2  C    0.000000   0.000000   0.000000   0.000000   0.000000   0.000000
     3  C    0.000000   0.000000   0.000000   0.000000   0.000000   0.000000
     4  C    0.000000   0.000000   0.000000   0.000000   0.000000   0.000000
     5  C    0.000000   0.000000   0.000000   0.000000   0.000000   0.000000
     6  C    0.000000   0.000000   0.000000   0.000000   0.000000   0.000000
     7  C    0.000000   0.000000   0.000000   0.000000   0.000000   0.000000
     8  C    0.000005   0.000000   0.000000   0.000000   0.000000   0.000000
     9  C   -0.001945   0.000005   0.000005   0.000000   0.000000   0.000000
    10  C   -0.021217  -0.001945  -0.001945   0.000004   0.000004   0.000000
    11  C    0.377509  -0.021209  -0.021209  -0.001942  -0.001942   0.000006
    12  C   -0.021230   0.377532   0.377532  -0.021337  -0.021337  -0.001954
    13  C   -0.001947  -0.021238  -0.021238   0.378131   0.378131  -0.019570
    14  C    0.000005  -0.001921  -0.001921  -0.021187  -0.021187   0.379494
    15  H    0.000000   0.000000   0.000000   0.000000   0.000000   0.000000
    16  H    0.000000   0.000000   0.000000   0.000000   0.000000   0.000000
    17  H    0.000000   0.000000   0.000000   0.000000   0.000000   0.000000
    18  H    0.000000   0.000000   0.000000   0.000000   0.000000   0.000000
    19  H    0.000000   0.000000   0.000000   0.000000   0.000000   0.000000
    20  H    0.000000   0.000000   0.000000   0.000000   0.000000   0.000000
    21  H    0.000000   0.000000   0.000000   0.000000   0.000000   0.000000
    22  H    0.000000   0.000000   0.000000   0.000000   0.000000   0.000000
    23  H    0.000000   0.000000   0.000000   0.000000   0.000000   0.000000
    24  H    0.000000   0.000000   0.000000   0.000000   0.000000   0.000000
    25  H    0.000000   0.000000   0.000000   0.000000   0.000000   0.000000
    26  H    0.000000   0.000000   0.000000   0.000000   0.000000   0.000000
    27  H    0.000000   0.000000   0.000000   0.000000   0.000000   0.000000
    28  H    0.000000   0.000000   0.000000   0.000000   0.000000   0.000000
    29  H    0.000000   0.000000   0.000000   0.000000   0.000000   0.000000
    30  H    0.000002   0.000000   0.000000   0.000000   0.000000   0.000000
    31  H    0.000000   0.000000   0.000000   0.000000   0.000000   0.000000
    32  H   -0.000001   0.000000   0.000002   0.000000   0.000000   0.000000
    33  H    0.000534   0.000002   0.000000   0.000000   0.000000   0.000000
    34  H   -0.002195   0.000533  -0.000001   0.000000   0.000002   0.000000
    35  H    0.001812  -0.000001   0.000533   0.000002   0.000000   0.000000
    36  H   -0.023012   0.001812  -0.002193   0.000541  -0.000002   0.000002
    37  H    0.626609  -0.002193   0.001812  -0.000002   0.000541   0.000000
    38  H   -0.002193   0.626462  -0.022995   0.001817  -0.002204  -0.000012
    39  H    0.001812  -0.022995   0.626462  -0.002204   0.001817   0.000534
    40  H   -0.000002   0.001817  -0.002204   0.625070  -0.022909  -0.002171
    41  H    0.000541  -0.002204   0.001817  -0.022909   0.625070   0.001807
    42  H    0.000000  -0.000012   0.000534  -0.002171   0.001807   0.613508
    43  H    0.000000   0.000006   0.000006  -0.002051  -0.002052  -0.020909
    44  H    0.000002   0.000534  -0.000012   0.001807  -0.002171  -0.021156
              43         44
     1  C    0.000000   0.000000
     2  C    0.000000   0.000000
     3  C    0.000000   0.000000
     4  C    0.000000   0.000000
     5  C    0.000000   0.000000
     6  C    0.000000   0.000000
     7  C    0.000000   0.000000
     8  C    0.000000   0.000000
     9  C    0.000000   0.000000
    10  C    0.000000   0.000000
    11  C   -0.000013   0.000006
    12  C    0.001146  -0.001954
    13  C   -0.018568  -0.019570
    14  C    0.379545   0.379494
    15  H    0.000000   0.000000
    16  H    0.000000   0.000000
    17  H    0.000000   0.000000
    18  H    0.000000   0.000000
    19  H    0.000000   0.000000
    20  H    0.000000   0.000000
    21  H    0.000000   0.000000
    22  H    0.000000   0.000000
    23  H    0.000000   0.000000
    24  H    0.000000   0.000000
    25  H    0.000000   0.000000
    26  H    0.000000   0.000000
    27  H    0.000000   0.000000
    28  H    0.000000   0.000000
    29  H    0.000000   0.000000
    30  H    0.000000   0.000000
    31  H    0.000000   0.000000
    32  H    0.000000   0.000000
    33  H    0.000000   0.000000
    34  H    0.000000   0.000000
    35  H    0.000000   0.000000
    36  H    0.000000   0.000000
    37  H    0.000000   0.000002
    38  H    0.000006   0.000534
    39  H    0.000006  -0.000012
    40  H   -0.002051   0.001807
    41  H   -0.002052  -0.002171
    42  H   -0.020909  -0.021156
    43  H    0.612461  -0.020909
    44  H   -0.020909   0.613508
 Mulliken charges:
               1
     1  C   -0.218026
     2  C   -0.127654
     3  C   -0.129461
     4  C   -0.129926
     5  C   -0.129802
     6  C   -0.129814
     7  C   -0.129813
     8  C   -0.129813
     9  C   -0.129814
    10  C   -0.129802
    11  C   -0.129926
    12  C   -0.129461
    13  C   -0.127654
    14  C   -0.218026
    15  H    0.071336
    16  H    0.070421
    17  H    0.070421
    18  H    0.066433
    19  H    0.066433
    20  H    0.065015
    21  H    0.065015
    22  H    0.064914
    23  H    0.064914
    24  H    0.064946
    25  H    0.064946
    26  H    0.064926
    27  H    0.064926
    28  H    0.064925
    29  H    0.064925
    30  H    0.064925
    31  H    0.064925
    32  H    0.064926
    33  H    0.064926
    34  H    0.064946
    35  H    0.064946
    36  H    0.064914
    37  H    0.064914
    38  H    0.065015
    39  H    0.065015
    40  H    0.066433
    41  H    0.066433
    42  H    0.070421
    43  H    0.071336
    44  H    0.070421
 Sum of Mulliken charges =   0.00000
 Mulliken charges with hydrogens summed into heavy atoms:
               1
[...]
    13  C    0.000000   0.000000   0.000000   0.000000   0.000000   0.000000
    14  C    0.000000   0.000000   0.000000   0.000000   0.000000   0.000000
    15  H   -0.002052   0.000006   0.000006   0.000000   0.000000   0.000000
    16  H    0.001807  -0.000012   0.000534   0.000002   0.000000   0.000000
    17  H   -0.002171   0.000534  -0.000012   0.000000   0.000002   0.000000
    18  H   -0.022910   0.001817  -0.002204   0.000541  -0.000002   0.000000
    19  H    0.625070  -0.002204   0.001817  -0.000002   0.000541   0.000002
    20  H   -0.002204   0.626462  -0.022995   0.001812  -0.002193   0.000533
    21  H    0.001817  -0.022995   0.626462  -0.002193   0.001812  -0.000001
    22  H   -0.000002   0.001812  -0.002193   0.626609  -0.023012   0.001812
    23  H    0.000541  -0.002193   0.001812  -0.023012   0.626609  -0.002195
    24  H    0.000002   0.000533  -0.000001   0.001812  -0.002195   0.626573
    25  H    0.000000  -0.000001   0.000533  -0.002195   0.001812  -0.023008
    26  H    0.000000   0.000000   0.000002   0.000534  -0.000001   0.001812
    27  H    0.000000   0.000002   0.000000  -0.000001   0.000534  -0.002195
    28  H    0.000000   0.000000   0.000000   0.000000   0.000002   0.000534
    29  H    0.000000   0.000000   0.000000   0.000002   0.000000  -0.000001
    30  H    0.000000   0.000000   0.000000   0.000000   0.000000   0.000000
    31  H    0.000000   0.000000   0.000000   0.000000   0.000000   0.000002
    32  H    0.000000   0.000000   0.000000   0.000000   0.000000   0.000000
    33  H    0.000000   0.000000   0.000000   0.000000   0.000000   0.000000
    34  H    0.000000   0.000000   0.000000   0.000000   0.000000   0.000000
    35  H    0.000000   0.000000   0.000000   0.000000   0.000000   0.000000
    36  H    0.000000   0.000000   0.000000   0.000000   0.000000   0.000000
    37  H    0.000000   0.000000   0.000000   0.000000   0.000000   0.000000
    38  H    0.000000   0.000000   0.000000   0.000000   0.000000   0.000000
    39  H    0.000000   0.000000   0.000000   0.000000   0.000000   0.000000
    40  H    0.000000   0.000000   0.000000   0.000000   0.000000   0.000000
    41  H    0.000000   0.000000   0.000000   0.000000   0.000000   0.000000
    42  H    0.000000   0.000000   0.000000   0.000000   0.000000   0.000000
    43  H    0.000000   0.000000   0.000000   0.000000   0.000000   0.000000
    44  H    0.000000   0.000000   0.000000   0.000000   0.000000   0.000000
              25         26         27         28         29         30
     1  C    0.000000   0.000000   0.000000   0.000000   0.000000   0.000000
     2  C    0.000005   0.000000   0.000000   0.000000   0.000000   0.000000
     3  C   -0.001946   0.000005   0.000005   0.000000   0.000000   0.000000
     4  C   -0.021228  -0.001945  -0.001945   0.000005   0.000005   0.000000
     5  C    0.377523  -0.021227  -0.021227  -0.001945  -0.001945   0.000005
     6  C   -0.021225   0.377521   0.377521  -0.021226  -0.021226  -0.001945
     7  C   -0.001946  -0.021224  -0.021224   0.377521   0.377521  -0.021227
     8  C    0.000005  -0.001945  -0.001945  -0.021227  -0.021227   0.377521
     9  C    0.000000   0.000005   0.000005  -0.001945  -0.001945  -0.021226
    10  C    0.000000   0.000000   0.000000   0.000005   0.000005  -0.001945
    11  C    0.000000   0.000000   0.000000   0.000000   0.000000   0.000005
    12  C    0.000000   0.000000   0.000000   0.000000   0.000000   0.000000
    13  C    0.000000   0.000000   0.000000   0.000000   0.000000   0.000000
    14  C    0.000000   0.000000   0.000000   0.000000   0.000000   0.000000
    15  H    0.000000   0.000000   0.000000   0.000000   0.000000   0.000000
    16  H    0.000000   0.000000   0.000000   0.000000   0.000000   0.000000
    17  H    0.000000   0.000000   0.000000   0.000000   0.000000   0.000000
    18  H    0.000002   0.000000   0.000000   0.000000   0.000000   0.000000
    19  H    0.000000   0.000000   0.000000   0.000000   0.000000   0.000000
    20  H   -0.000001   0.000000   0.000002   0.000000   0.000000   0.000000
    21  H    0.000533   0.000002   0.000000   0.000000   0.000000   0.000000
    22  H   -0.002195   0.000534  -0.000001   0.000000   0.000002   0.000000
    23  H    0.001812  -0.000001   0.000534   0.000002   0.000000   0.000000
    24  H   -0.023008   0.001812  -0.002195   0.000534  -0.000001   0.000000
    25  H    0.626573  -0.002195   0.001812  -0.000001   0.000534   0.000002
    26  H   -0.002195   0.626592  -0.023010   0.001812  -0.002194   0.000534
    27  H    0.001812  -0.023010   0.626592  -0.002194   0.001812  -0.000001
    28  H   -0.000001   0.001812  -0.002194   0.626594  -0.023010   0.001812
    29  H    0.000534  -0.002194   0.001812  -0.023010   0.626594  -0.002195
    30  H    0.000002   0.000534  -0.000001   0.001812  -0.002195   0.626594
    31  H    0.000000  -0.000001   0.000534  -0.002195   0.001812  -0.023010
    32  H    0.000000   0.000000   0.000002   0.000534  -0.000001   0.001812
    33  H    0.000000   0.000002   0.000000  -0.000001   0.000534  -0.002194
    34  H    0.000000   0.000000   0.000000   0.000000   0.000002   0.000534
    35  H    0.000000   0.000000   0.000000   0.000002   0.000000  -0.000001
    36  H    0.000000   0.000000   0.000000   0.000000   0.000000   0.000000
    37  H    0.000000   0.000000   0.000000   0.000000   0.000000   0.000002
    38  H    0.000000   0.000000   0.000000   0.000000   0.000000   0.000000
    39  H    0.000000   0.000000   0.000000   0.000000   0.000000   0.000000
    40  H    0.000000   0.000000   0.000000   0.000000   0.000000   0.000000
    41  H    0.000000   0.000000   0.000000   0.000000   0.000000   0.000000
    42  H    0.000000   0.000000   0.000000   0.000000   0.000000   0.000000
    43  H    0.000000   0.000000   0.000000   0.000000   0.000000   0.000000
    44  H    0.000000   0.000000   0.000000   0.000000   0.000000   0.000000
              31         32         33         34         35         36
     1  C    0.000000   0.000000   0.000000   0.000000   0.000000   0.000000
     2  C    0.000000   0.000000   0.000000   0.000000   0.000000   0.000000
     3  C    0.000000   0.000000   0.000000   0.000000   0.000000   0.000000
     4  C    0.000000   0.000000   0.000000   0.000000   0.000000   0.000000
     5  C    0.000005   0.000000   0.000000   0.000000   0.000000   0.000000
     6  C   -0.001945   0.000005   0.000005   0.000000   0.000000   0.000000
     7  C   -0.021227  -0.001945  -0.001945   0.000005   0.000005   0.000000
     8  C    0.377521  -0.021224  -0.021224  -0.001946  -0.001946   0.000005
     9  C   -0.021226   0.377521   0.377521  -0.021225  -0.021225  -0.001945
    10  C   -0.001945  -0.021227  -0.021227   0.377523   0.377523  -0.021217
    11  C    0.000005  -0.001945  -0.001945  -0.021228  -0.021228   0.377509
    12  C    0.000000   0.000005   0.000005  -0.001946  -0.001946  -0.021230
    13  C    0.000000   0.000000   0.000000   0.000005   0.000005  -0.001947
    14  C    0.000000   0.000000   0.000000   0.000000   0.000000   0.000005
    15  H    0.000000   0.000000   0.000000   0.000000   0.000000   0.000000
    16  H    0.000000   0.000000   0.000000   0.000000   0.000000   0.000000
    17  H    0.000000   0.000000   0.000000   0.000000   0.000000   0.000000
    18  H    0.000000   0.000000   0.000000   0.000000   0.000000   0.000000
    19  H    0.000000   0.000000   0.000000   0.000000   0.000000   0.000000
    20  H    0.000000   0.000000   0.000000   0.000000   0.000000   0.000000
    21  H    0.000000   0.000000   0.000000   0.000000   0.000000   0.000000
    22  H    0.000000   0.000000   0.000000   0.000000   0.000000   0.000000
    23  H    0.000000   0.000000   0.000000   0.000000   0.000000   0.000000
    24  H    0.000002   0.000000   0.000000   0.000000   0.000000   0.000000
    25  H    0.000000   0.000000   0.000000   0.000000   0.000000   0.000000
    26  H   -0.000001   0.000000   0.000002   0.000000   0.000000   0.000000
    27  H    0.000534   0.000002   0.000000   0.000000   0.000000   0.000000
    28  H   -0.002195   0.000534  -0.000001   0.000000   0.000002   0.000000
    29  H    0.001812  -0.000001   0.000534   0.000002   0.000000   0.000000
    30  H   -0.023010   0.001812  -0.002194   0.000534  -0.000001   0.000000
    31  H    0.626594  -0.002194   0.001812  -0.000001   0.000534   0.000002
    32  H   -0.002194   0.626592  -0.023010   0.001812  -0.002195   0.000534
    33  H    0.001812  -0.023010   0.626592  -0.002195   0.001812  -0.000001
    34  H   -0.000001   0.001812  -0.002195   0.626573  -0.023008   0.001812
    35  H    0.000534  -0.002195   0.001812  -0.023008   0.626573  -0.002195
    36  H    0.000002   0.000534  -0.000001   0.001812  -0.002195   0.626609
    37  H    0.000000  -0.000001   0.000534  -0.002195   0.001812  -0.023012
    38  H    0.000000   0.000000   0.000002   0.000533  -0.000001   0.001812
    39  H    0.000000   0.000002   0.000000  -0.000001   0.000533  -0.002193
    40  H    0.000000   0.000000   0.000000   0.000000   0.000002   0.000541
    41  H    0.000000   0.000000   0.000000   0.000002   0.000000  -0.000002
    42  H    0.000000   0.000000   0.000000   0.000000   0.000000   0.000002
    43  H    0.000000   0.000000   0.000000   0.000000   0.000000   0.000000
    44  H    0.000000   0.000000   0.000000   0.000000   0.000000   0.000000
              37         38         39         40         41         42
     1  C    0.000000   0.000000   0.000000   0.000000   0.000000   0.000000
     2  C    0.000000   0.000000   0.000000   0.000000   0.000000   0.000000
     3  C    0.000000   0.000000   0.000000   0.000000   0.000000   0.000000
     4  C    0.000000   0.000000   0.000000   0.000000   0.000000   0.000000
     5  C    0.000000   0.000000   0.000000   0.000000   0.000000   0.000000
     6  C    0.000000   0.000000   0.000000   0.000000   0.000000   0.000000
     7  C    0.000000   0.000000   0.000000   0.000000   0.000000   0.000000
     8  C    0.000005   0.000000   0.000000   0.000000   0.000000   0.000000
     9  C   -0.001945   0.000005   0.000005   0.000000   0.000000   0.000000
    10  C   -0.021217  -0.001945  -0.001945   0.000004   0.000004   0.000000
    11  C    0.377509  -0.021209  -0.021209  -0.001942  -0.001942   0.000006
    12  C   -0.021230   0.377532   0.377532  -0.021337  -0.021337  -0.001954
    13  C   -0.001947  -0.021238  -0.021238   0.378131   0.378131  -0.019570
    14  C    0.000005  -0.001921  -0.001921  -0.021187  -0.021187   0.379494
    15  H    0.000000   0.000000   0.000000   0.000000   0.000000   0.000000
    16  H    0.000000   0.000000   0.000000   0.000000   0.000000   0.000000
    17  H    0.000000   0.000000   0.000000   0.000000   0.000000   0.000000
    18  H    0.000000   0.000000   0.000000   0.000000   0.000000   0.000000
    19  H    0.000000   0.000000   0.000000   0.000000   0.000000   0.000000
    20  H    0.000000   0.000000   0.000000   0.000000   0.000000   0.000000
    21  H    0.000000   0.000000   0.000000   0.000000   0.000000   0.000000
    22  H    0.000000   0.000000   0.000000   0.000000   0.000000   0.000000
    23  H    0.000000   0.000000   0.000000   0.000000   0.000000   0.000000
    24  H    0.000000   0.000000   0.000000   0.000000   0.000000   0.000000
    25  H    0.000000   0.000000   0.000000   0.000000   0.000000   0.000000
    26  H    0.000000   0.000000   0.000000   0.000000   0.000000   0.000000
    27  H    0.000000   0.000000   0.000000   0.000000   0.000000   0.000000
    28  H    0.000000   0.000000   0.000000   0.000000   0.000000   0.000000
    29  H    0.000000   0.000000   0.000000   0.000000   0.000000   0.000000
    30  H    0.000002   0.000000   0.000000   0.000000   0.000000   0.000000
    31  H    0.000000   0.000000   0.000000   0.000000   0.000000   0.000000
    32  H   -0.000001   0.000000   0.000002   0.000000   0.000000   0.000000
    33  H    0.000534   0.000002   0.000000   0.000000   0.000000   0.000000
    34  H   -0.002195   0.000533  -0.000001   0.000000   0.000002   0.000000
    35  H    0.001812  -0.000001   0.000533   0.000002   0.000000   0.000000
    36  H   -0.023012   0.001812  -0.002193   0.000541  -0.000002   0.000002
    37  H    0.626609  -0.002193   0.001812  -0.000002   0.000541   0.000000
    38  H   -0.002193   0.626462  -0.022995   0.001817  -0.002204  -0.000012
    39  H    0.001812  -0.022995   0.626462  -0.002204   0.001817   0.000534
    40  H   -0.000002   0.001817  -0.002204   0.625070  -0.022910  -0.002171
    41  H    0.000541  -0.002204   0.001817  -0.022910   0.625070   0.001807
    42  H    0.000000  -0.000012   0.000534  -0.002171   0.001807   0.613508
    43  H    0.000000   0.000006   0.000006  -0.002052  -0.002052  -0.020909
    44  H    0.000002   0.000534  -0.000012   0.001807  -0.002171  -0.021156
              43         44
     1  C    0.000000   0.000000
     2  C    0.000000   0.000000
     3  C    0.000000   0.000000
     4  C    0.000000   0.000000
     5  C    0.000000   0.000000
     6  C    0.000000   0.000000
     7  C    0.000000   0.000000
     8  C    0.000000   0.000000
     9  C    0.000000   0.000000
    10  C    0.000000   0.000000
    11  C   -0.000013   0.000006
    12  C    0.001146  -0.001954
    13  C   -0.018568  -0.019570
    14  C    0.379545   0.379494
    15  H    0.000000   0.000000
    16  H    0.000000   0.000000
    17  H    0.000000   0.000000
    18  H    0.000000   0.000000
    19  H    0.000000   0.000000
    20  H    0.000000   0.000000
    21  H    0.000000   0.000000
    22  H    0.000000   0.000000
    23  H    0.000000   0.000000
    24  H    0.000000   0.000000
    25  H    0.000000   0.000000
    26  H    0.000000   0.000000
    27  H    0.000000   0.000000
    28  H    0.000000   0.000000
    29  H    0.000000   0.000000
    30  H    0.000000   0.000000
    31  H    0.000000   0.000000
    32  H    0.000000   0.000000
    33  H    0.000000   0.000000
    34  H    0.000000   0.000000
    35  H    0.000000   0.000000
    36  H    0.000000   0.000000
    37  H    0.000000   0.000002
    38  H    0.000006   0.000534
    39  H    0.000006  -0.000012
    40  H   -0.002052   0.001807
    41  H   -0.002052  -0.002171
    42  H   -0.020909  -0.021156
    43  H    0.612461  -0.020909
    44  H   -0.020909   0.613508
 Mulliken charges:
               1
     1  C   -0.218026
     2  C   -0.127654
     3  C   -0.129461
     4  C   -0.129927
     5  C   -0.129802
     6  C   -0.129814
     7  C   -0.129813
     8  C   -0.129813
     9  C   -0.129814
    10  C   -0.129802
    11  C   -0.129927
    12  C   -0.129461
    13  C   -0.127654
    14  C   -0.218026
    15  H    0.071337
    16  H    0.070421
    17  H    0.070421
    18  H    0.066433
    19  H    0.066433
    20  H    0.065015
    21  H    0.065015
    22  H    0.064914
    23  H    0.064914
    24  H    0.064946
    25  H    0.064946
    26  H    0.064926
    27  H    0.064926
    28  H    0.064925
    29  H    0.064925
    30  H    0.064925
    31  H    0.064925
    32  H    0.064926
    33  H    0.064926
    34  H    0.064946
    35  H    0.064946
    36  H    0.064914
    37  H    0.064914
    38  H    0.065015
    39  H    0.065015
    40  H    0.066433
    41  H    0.066433
    42  H    0.070421
    43  H    0.071337
    44  H    0.070421
 Sum of Mulliken charges =   0.00000
 Mulliken charges with hydrogens summed into heavy atoms:
               1
     1  C   -0.005847
     2  C    0.005212
     3  C    0.000568
     4  C   -0.000099
     5  C    0.000090
     6  C    0.000039
     7  C    0.000037
     8  C    0.000037
     9  C    0.000039
    10  C    0.000090
    11  C   -0.000099
    12  C    0.000568
    13  C    0.005212
    14  C   -0.005847
 Electronic spatial extent (au):  <R**2>=          12001.7612
 Charge=              0.0000 electrons
 Dipole moment (field-independent basis, Debye):
    X=              0.0000    Y=              0.0000    Z=              0.0000  Tot=              0.0000
 Quadrupole moment (field-independent basis, Debye-Ang):
   XX=            -89.8987   YY=            -88.3279   ZZ=            -86.9027
   XY=              0.2967   XZ=              0.0000   YZ=              0.0000
 Traceless Quadrupole moment (field-independent basis, Debye-Ang):
   XX=             -1.5223   YY=              0.0486   ZZ=              1.4737
   XY=              0.2967   XZ=              0.0000   YZ=              0.0000
 Octapole moment (field-independent basis, Debye-Ang**2):
  XXX=              0.0000  YYY=              0.0000  ZZZ=              0.0000  XYY=              0.0000
  XXY=              0.0000  XXZ=              0.0000  XZZ=              0.0000  YZZ=              0.0000
  YYZ=              0.0000  XYZ=              0.0000
 Hexadecapole moment (field-independent basis, Debye-Ang**3):
 XXXX=         -15324.3784 YYYY=           -300.2972 ZZZZ=           -167.1134 XXXY=             58.6212
 XXXZ=              0.0000 YYYX=              0.4578 YYYZ=              0.0000 ZZZX=              0.0000
 ZZZY=              0.0000 XXYY=          -2567.2157 XXZZ=          -2516.3651 YYZZ=            -67.2711
 XXYZ=              0.0000 YYXZ=              0.0000 ZZXY=             -5.4542
 N-N= 8.218029505703D+02 E-N=-2.901076873508D+03  KE= 5.352092236048D+02
 1\1\GINC-MW\FOpt\RB3LYP\STO-3G\C14H30\BING\25-Feb-2019\0\\# opt(tight)
  b3lyp/sto-3g\\c14h30\\0,1\C,0.0415101795,-1.1299100608,-2.534807739\C
 ,0.4670216458,-2.5018584901,-1.9366886305\C,1.7451611103,-2.3913273789
 ,-1.0476586297\C,2.1716567407,-3.7676677412,-0.4478951273\C,3.44980534
 72,-3.6566925838,0.4410454587\C,3.8764129194,-5.0331039132,1.040902703
 1\C,5.1545957706,-4.9219930964,1.9298376089\C,5.5812563812,-6.29837849
 87,2.5297252528\C,6.8594398008,-6.1872680821,3.418659392\C,7.286048780
 1,-7.5636801363,4.0185139727\C,8.5641989234,-7.4527060916,4.9074524865
 \C,8.9906969586,-8.8290477411,5.5072113247\C,10.2688386501,-8.71851829
 54,6.3962383361\C,10.6943525779,-10.0904682208,6.9943522686\H,-0.86097
 31731,-1.2407587049,-3.1555085058\H,0.8440599077,-0.7141193628,-3.1631
 781574\H,-0.1769314702,-0.4074701946,-1.7334456274\H,0.6556682959,-3.2
 16083871,-2.7572321619\H,-0.361782354,-2.9104982273,-1.3324580137\H,1.
 5570818972,-1.6776744069,-0.226462735\H,2.5746466186,-1.9832940248,-1.
 6513966842\H,2.3594165745,-4.4810687023,-1.2693955702\H,1.3418315803,-
 4.1754425853,0.1555678153\H,3.2620007021,-2.9432711848,1.2625082549\H,
 4.2795841064,-3.2488954736,-0.1624531435\H,4.0642289455,-5.7465264652,
 0.2194427525\H,3.046640936,-5.4409001594,1.6444121844\H,4.9667679797,-
 4.2085591922,2.7512848497\H,5.984353684,-4.5141829814,1.3263183171\H,5
 .7690834655,-7.0118125647,1.7082779685\H,4.751498719,-6.7061882947,3.1
 332450787\H,6.6716238987,-5.4738470471,4.2401206669\H,7.6892110076,-5.
 7794702122,2.8151499198\H,7.4738520949,-8.2771002892,3.1970497685\H,6.
 4562712198,-7.9714783244,4.6220134728\H,8.3764399985,-6.7393076211,5.7
 28955287\H,9.394022504,-7.0449287422,4.3039890523\H,9.1787744267,-9.54
 2698394,4.686013006\H,8.1612133138,-9.2370832318,6.1109504856\H,10.080
 1937333,-8.0042954433,7.21678447\H,11.0976407479,-8.3098762395,5.79200
 66832\H,9.8918046179,-10.5062614971,7.6227232314\H,11.5968372661,-9.97
 96207949,7.6150513076\H,10.9127929597,-10.8129054269,6.1929874094\\Ver
 sion=ES64L-G09RevD.01\State=1-A\HF=-545.063902\RMSD=9.178e-10\RMSF=6.7
 40e-08\Dipole=0.,0.,0.\Quadrupole=0.0309109,-0.4095294,0.3786184,0.342
 214,-0.8337481,0.5672094\PG=C01 [X(C14H30)]\\@


 WE TEND TO MEET ANY NEW SITUATION BY REORGANIZING. IT CAN BE A
 WONDERFUL METHOD FOR CREATING THE ILLUSION OF PROGRESS WHILE PRODUCING
 CONFUSION, INEFFICIENCY, AND DEMORALIZATION.
     -- PETRONIUS ARBITER, 210 B.C.
 Job cpu time:       0 days  0 hours  2 minutes 52.3 seconds.
 File lengths (MBytes):  RWF=      9 Int=      0 D2E=      0 Chk=      3 Scr=      1
 Normal termination of Gaussian 09 at Mon Feb 25 22:31:55 2019.
