 Entering Gaussian System, Link 0=g09
 Input=c16h18.com
 Output=c16h18.out
 Initial command:
 /home/bing/src/g09_d.01/g09/l1.exe "/data/trash/Gau-20353.inp" -scrdir="/data/trash/"
 Entering Link 1 = /home/bing/src/g09_d.01/g09/l1.exe PID=     20355.
  
 Copyright (c) 1988,1990,1992,1993,1995,1998,2003,2009,2013,
            Gaussian, Inc.  All Rights Reserved.
  
 This is part of the Gaussian(R) 09 program.  It is based on
 the Gaussian(R) 03 system (copyright 2003, Gaussian, Inc.),
 the Gaussian(R) 98 system (copyright 1998, Gaussian, Inc.),
 the Gaussian(R) 94 system (copyright 1995, Gaussian, Inc.),
 the Gaussian 92(TM) system (copyright 1992, Gaussian, Inc.),
 the Gaussian 90(TM) system (copyright 1990, Gaussian, Inc.),
 the Gaussian 88(TM) system (copyright 1988, Gaussian, Inc.),
 the Gaussian 86(TM) system (copyright 1986, Carnegie Mellon
 University), and the Gaussian 82(TM) system (copyright 1983,
 Carnegie Mellon University). Gaussian is a federally registered
 trademark of Gaussian, Inc.
  
 This software contains proprietary and confidential information,
 including trade secrets, belonging to Gaussian, Inc.
  
 This software is provided under written license and may be
 used, copied, transmitted, or stored only in accord with that
 written license.
  
 The following legend is applicable only to US Government
 contracts under FAR:
  
                    RESTRICTED RIGHTS LEGEND
  
 Use, reproduction and disclosure by the US Government is
 subject to restrictions as set forth in subparagraphs (a)
 and (c) of the Commercial Computer Software - Restricted
 Rights clause in FAR 52.227-19.
  
 Gaussian, Inc.
 340 Quinnipiac St., Bldg. 40, Wallingford CT 06492
  
  
 ---------------------------------------------------------------
 Warning -- This program may not be used in any manner that
 competes with the business of Gaussian, Inc. or will provide
 assistance to any competitor of Gaussian, Inc.  The licensee
 of this program is prohibited from giving any competitor of
 Gaussian, Inc. access to this program.  By using this program,
 the user acknowledges that Gaussian, Inc. is engaged in the
 business of creating and licensing software in the field of
 computational chemistry and represents and warrants to the
 licensee that it is not a competitor of Gaussian, Inc. and that
 it will not use this program in any manner prohibited above.
 ---------------------------------------------------------------
  

 Cite this work as:
 Gaussian 09, Revision D.01,
 M. J. Frisch, G. W. Trucks, H. B. Schlegel, G. E. Scuseria, 
 M. A. Robb, J. R. Cheeseman, G. Scalmani, V. Barone, B. Mennucci, 
 G. A. Petersson, H. Nakatsuji, M. Caricato, X. Li, H. P. Hratchian, 
 A. F. Izmaylov, J. Bloino, G. Zheng, J. L. Sonnenberg, M. Hada, 
 M. Ehara, K. Toyota, R. Fukuda, J. Hasegawa, M. Ishida, T. Nakajima, 
 Y. Honda, O. Kitao, H. Nakai, T. Vreven, J. A. Montgomery, Jr., 
 J. E. Peralta, F. Ogliaro, M. Bearpark, J. J. Heyd, E. Brothers, 
 K. N. Kudin, V. N. Staroverov, T. Keith, R. Kobayashi, J. Normand, 
 K. Raghavachari, A. Rendell, J. C. Burant, S. S. Iyengar, J. Tomasi, 
 M. Cossi, N. Rega, J. M. Millam, M. Klene, J. E. Knox, J. B. Cross, 
 V. Bakken, C. Adamo, J. Jaramillo, R. Gomperts, R. E. Stratmann, 
 O. Yazyev, A. J. Austin, R. Cammi, C. Pomelli, J. W. Ochterski, 
 R. L. Martin, K. Morokuma, V. G. Zakrzewski, G. A. Voth, 
 P. Salvador, J. J. Dannenberg, S. Dapprich, A. D. Daniels, 
 O. Farkas, J. B. Foresman, J. V. Ortiz, J. Cioslowski, 
 and D. J. Fox, Gaussian, Inc., Wallingford CT, 2013.
 
 ******************************************
 Gaussian 09:  ES64L-G09RevD.01 24-Apr-2013
                26-Feb-2019 
 ******************************************
 %nproc=16
 Will use up to   16 processors via shared memory.
 ---------------------------------
 # opt(calcall,tight) b3lyp/sto-3g
 ---------------------------------
 1/7=10,10=4,14=-1,18=20,19=15,26=3,38=1/1,3;
 2/9=110,12=2,17=6,18=5,40=1/2;
 3/6=3,11=2,16=1,25=1,30=1,71=2,74=-5,140=1/1,2,3;
 4//1;
 5/5=2,38=5/2;
 8/6=4,10=90,11=11/1;
 11/6=1,8=1,9=11,15=111,16=1/1,2,10;
 10/6=1/2;
 6/7=2,8=2,9=2,10=2,18=1,28=1/1;
 7/10=1,25=1/1,2,3,16;
 1/7=10,10=4,14=-1,18=20,19=15,26=3/3(3);
 2/9=110/2;
 7/8=1,9=1,25=1,44=-1/16;
 99//99;
 2/9=110/2;
 3/6=3,11=2,16=1,25=1,30=1,71=2,74=-5,140=1/1,2,3;
 4/5=5,16=3,69=1/1;
 5/5=2,38=5/2;
 8/6=4,10=90,11=11/1;
 11/6=1,8=1,9=11,15=111,16=1/1,2,10;
 10/6=1/2;
 7/10=1,25=1/1,2,3,16;
 1/7=10,10=4,14=-1,18=20,19=15,26=3/3(-8);
 2/9=110/2;
 6/7=2,8=2,9=2,10=2,18=1,19=2,28=1/1;
 7/8=1,9=1,25=1,44=-1/16;
 99//99;
 ------
 c16h18
 ------
 Symbolic Z-matrix:
 Charge =  0 Multiplicity = 1
 C                     1.28675  -0.31221  -0.22841 
 C                     1.84006   0.51364  -1.12376 
 C                     3.26546   0.72401  -1.2237 
 C                     3.81645   1.55305  -2.12296 
 C                     5.24395   1.7651   -2.22462 
 C                     5.79341   2.59459  -3.12455 
 C                     7.22059   2.80783  -3.22762 
 C                     7.76867   3.63768  -4.1281 
 C                     9.19568   3.85154  -4.23189 
 C                     9.74376   4.6814   -5.13238 
 C                     11.17094   4.89459  -5.2354 
 C                     11.72066   5.72404  -6.13525 
 C                     13.14826   5.93562  -6.23637 
 C                     13.70043   6.76439  -7.1352 
 C                     15.12617   6.97333  -7.23346 
 C                     15.68215   7.79866  -8.12795 
 H                     0.20933  -0.43945  -0.18943 
 H                     1.88062  -0.87814   0.48221 
 H                     1.19468   1.05566  -1.812 
 H                     3.89747   0.17487  -0.52861 
 H                     3.18262   2.10124  -2.81714 
 H                     5.8775    1.21675  -1.53028 
 H                     5.15883   3.14241  -3.81839 
 H                     7.85545   2.26015  -2.53392 
 H                     7.13343   4.18516  -4.82161 
 H                     9.83092   3.30405  -3.53837 
 H                     9.10894   5.22908  -5.82609 
 H                     11.8054   4.3467   -4.54149 
 H                     11.08745   6.27255  -6.82974 
 H                     13.78143   5.38708  -5.54184 
 H                     13.06952   7.31408  -7.83082 
 H                     15.77007   6.4305   -6.54443 
 H                     15.09002   8.36543  -8.83936 
 H                     16.75979   7.92448  -8.16526 
 

 GradGradGradGradGradGradGradGradGradGradGradGradGradGradGradGradGradGrad
 Berny optimization.
 Initialization pass.
                           ----------------------------
                           !    Initial Parameters    !
                           ! (Angstroms and Degrees)  !
 --------------------------                            --------------------------
 ! Name  Definition              Value          Derivative Info.                !
 --------------------------------------------------------------------------------
 ! R1    R(1,2)                  1.3378         calculate D2E/DX2 analytically  !
 ! R2    R(1,17)                 1.0856         calculate D2E/DX2 analytically  !
 ! R3    R(1,18)                 1.0853         calculate D2E/DX2 analytically  !
 ! R4    R(2,3)                  1.4443         calculate D2E/DX2 analytically  !
 ! R5    R(2,19)                 1.0881         calculate D2E/DX2 analytically  !
 ! R6    R(3,4)                  1.3415         calculate D2E/DX2 analytically  !
 ! R7    R(3,20)                 1.0882         calculate D2E/DX2 analytically  !
 ! R8    R(4,5)                  1.4467         calculate D2E/DX2 analytically  !
 ! R9    R(4,21)                 1.0882         calculate D2E/DX2 analytically  !
 ! R10   R(5,6)                  1.3416         calculate D2E/DX2 analytically  !
 ! R11   R(5,22)                 1.0882         calculate D2E/DX2 analytically  !
 ! R12   R(6,7)                  1.4467         calculate D2E/DX2 analytically  !
 ! R13   R(6,23)                 1.0882         calculate D2E/DX2 analytically  !
 ! R14   R(7,8)                  1.3416         calculate D2E/DX2 analytically  !
 ! R15   R(7,24)                 1.0882         calculate D2E/DX2 analytically  !
 ! R16   R(8,9)                  1.4467         calculate D2E/DX2 analytically  !
 ! R17   R(8,25)                 1.0882         calculate D2E/DX2 analytically  !
 ! R18   R(9,10)                 1.3416         calculate D2E/DX2 analytically  !
 ! R19   R(9,26)                 1.0882         calculate D2E/DX2 analytically  !
 ! R20   R(10,11)                1.4467         calculate D2E/DX2 analytically  !
 ! R21   R(10,27)                1.0882         calculate D2E/DX2 analytically  !
 ! R22   R(11,12)                1.3416         calculate D2E/DX2 analytically  !
 ! R23   R(11,28)                1.0882         calculate D2E/DX2 analytically  !
 ! R24   R(12,13)                1.4467         calculate D2E/DX2 analytically  !
 ! R25   R(12,29)                1.0882         calculate D2E/DX2 analytically  !
 ! R26   R(13,14)                1.3415         calculate D2E/DX2 analytically  !
 ! R27   R(13,30)                1.0882         calculate D2E/DX2 analytically  !
 ! R28   R(14,15)                1.4443         calculate D2E/DX2 analytically  !
 ! R29   R(14,31)                1.0882         calculate D2E/DX2 analytically  !
 ! R30   R(15,16)                1.3381         calculate D2E/DX2 analytically  !
 ! R31   R(15,32)                1.0881         calculate D2E/DX2 analytically  !
 ! R32   R(16,33)                1.0853         calculate D2E/DX2 analytically  !
 ! R33   R(16,34)                1.0856         calculate D2E/DX2 analytically  !
 ! A1    A(2,1,17)             120.4539         calculate D2E/DX2 analytically  !
 ! A2    A(2,1,18)             122.2604         calculate D2E/DX2 analytically  !
 ! A3    A(17,1,18)            117.2857         calculate D2E/DX2 analytically  !
 ! A4    A(1,2,3)              122.9831         calculate D2E/DX2 analytically  !
 ! A5    A(1,2,19)             119.0451         calculate D2E/DX2 analytically  !
 ! A6    A(3,2,19)             117.9718         calculate D2E/DX2 analytically  !
 ! A7    A(2,3,4)              122.8035         calculate D2E/DX2 analytically  !
 ! A8    A(2,3,20)             117.0965         calculate D2E/DX2 analytically  !
 ! A9    A(4,3,20)             120.1001         calculate D2E/DX2 analytically  !
 ! A10   A(3,4,5)              122.8852         calculate D2E/DX2 analytically  !
 ! A11   A(3,4,21)             119.9819         calculate D2E/DX2 analytically  !
 ! A12   A(5,4,21)             117.133          calculate D2E/DX2 analytically  !
 ! A13   A(4,5,6)              122.8114         calculate D2E/DX2 analytically  !
 ! A14   A(4,5,22)             117.1141         calculate D2E/DX2 analytically  !
 ! A15   A(6,5,22)             120.0745         calculate D2E/DX2 analytically  !
 ! A16   A(5,6,7)              122.8855         calculate D2E/DX2 analytically  !
 ! A17   A(5,6,23)             120.0081         calculate D2E/DX2 analytically  !
 ! A18   A(7,6,23)             117.1063         calculate D2E/DX2 analytically  !
 ! A19   A(6,7,8)              122.8203         calculate D2E/DX2 analytically  !
 ! A20   A(6,7,24)             117.1244         calculate D2E/DX2 analytically  !
 ! A21   A(8,7,24)             120.0553         calculate D2E/DX2 analytically  !
 ! A22   A(7,8,9)              122.8585         calculate D2E/DX2 analytically  !
 ! A23   A(7,8,25)             120.0306         calculate D2E/DX2 analytically  !
 ! A24   A(9,8,25)             117.1109         calculate D2E/DX2 analytically  !
 ! A25   A(8,9,10)             122.8582         calculate D2E/DX2 analytically  !
 ! A26   A(8,9,26)             117.1105         calculate D2E/DX2 analytically  !
 ! A27   A(10,9,26)            120.0313         calculate D2E/DX2 analytically  !
 ! A28   A(9,10,11)            122.8173         calculate D2E/DX2 analytically  !
 ! A29   A(9,10,27)            120.0575         calculate D2E/DX2 analytically  !
 ! A30   A(11,10,27)           117.1252         calculate D2E/DX2 analytically  !
 ! A31   A(10,11,12)           122.8945         calculate D2E/DX2 analytically  !
 ! A32   A(10,11,28)           117.1009         calculate D2E/DX2 analytically  !
 ! A33   A(12,11,28)           120.0046         calculate D2E/DX2 analytically  !
 ! A34   A(11,12,13)           122.7944         calculate D2E/DX2 analytically  !
 ! A35   A(11,12,29)           120.0841         calculate D2E/DX2 analytically  !
 ! A36   A(13,12,29)           117.1214         calculate D2E/DX2 analytically  !
 ! A37   A(12,13,14)           122.9114         calculate D2E/DX2 analytically  !
 ! A38   A(12,13,30)           117.1182         calculate D2E/DX2 analytically  !
 ! A39   A(14,13,30)           119.9704         calculate D2E/DX2 analytically  !
 ! A40   A(13,14,15)           122.7698         calculate D2E/DX2 analytically  !
 ! A41   A(13,14,31)           120.1157         calculate D2E/DX2 analytically  !
 ! A42   A(15,14,31)           117.1145         calculate D2E/DX2 analytically  !
 ! A43   A(14,15,16)           123.0164         calculate D2E/DX2 analytically  !
 ! A44   A(14,15,32)           117.9623         calculate D2E/DX2 analytically  !
 ! A45   A(16,15,32)           119.0213         calculate D2E/DX2 analytically  !
 ! A46   A(15,16,33)           122.2488         calculate D2E/DX2 analytically  !
 ! A47   A(15,16,34)           120.4595         calculate D2E/DX2 analytically  !
 ! A48   A(33,16,34)           117.2918         calculate D2E/DX2 analytically  !
 ! D1    D(17,1,2,3)           179.9997         calculate D2E/DX2 analytically  !
 ! D2    D(17,1,2,19)           -0.0003         calculate D2E/DX2 analytically  !
 ! D3    D(18,1,2,3)            -0.0002         calculate D2E/DX2 analytically  !
 ! D4    D(18,1,2,19)          179.9999         calculate D2E/DX2 analytically  !
 ! D5    D(1,2,3,4)            179.9998         calculate D2E/DX2 analytically  !
 ! D6    D(1,2,3,20)             0.0005         calculate D2E/DX2 analytically  !
 ! D7    D(19,2,3,4)            -0.0003         calculate D2E/DX2 analytically  !
 ! D8    D(19,2,3,20)         -179.9996         calculate D2E/DX2 analytically  !
 ! D9    D(2,3,4,5)            179.9999         calculate D2E/DX2 analytically  !
 ! D10   D(2,3,4,21)             0.0007         calculate D2E/DX2 analytically  !
 ! D11   D(20,3,4,5)            -0.0009         calculate D2E/DX2 analytically  !
 ! D12   D(20,3,4,21)          179.9999         calculate D2E/DX2 analytically  !
 ! D13   D(3,4,5,6)           -180.0            calculate D2E/DX2 analytically  !
 ! D14   D(3,4,5,22)             0.0007         calculate D2E/DX2 analytically  !
 ! D15   D(21,4,5,6)            -0.0008         calculate D2E/DX2 analytically  !
 ! D16   D(21,4,5,22)          179.9999         calculate D2E/DX2 analytically  !
 ! D17   D(4,5,6,7)           -179.9997         calculate D2E/DX2 analytically  !
 ! D18   D(4,5,6,23)             0.0004         calculate D2E/DX2 analytically  !
 ! D19   D(22,5,6,7)            -0.0004         calculate D2E/DX2 analytically  !
 ! D20   D(22,5,6,23)          179.9997         calculate D2E/DX2 analytically  !
 ! D21   D(5,6,7,8)           -179.9999         calculate D2E/DX2 analytically  !
 ! D22   D(5,6,7,24)             0.0004         calculate D2E/DX2 analytically  !
 ! D23   D(23,6,7,8)             0.0            calculate D2E/DX2 analytically  !
 ! D24   D(23,6,7,24)         -179.9997         calculate D2E/DX2 analytically  !
 ! D25   D(6,7,8,9)            179.9997         calculate D2E/DX2 analytically  !
 ! D26   D(6,7,8,25)             0.0002         calculate D2E/DX2 analytically  !
 ! D27   D(24,7,8,9)            -0.0006         calculate D2E/DX2 analytically  !
 ! D28   D(24,7,8,25)          179.9999         calculate D2E/DX2 analytically  !
 ! D29   D(7,8,9,10)          -179.9999         calculate D2E/DX2 analytically  !
 ! D30   D(7,8,9,26)             0.0006         calculate D2E/DX2 analytically  !
 ! D31   D(25,8,9,10)           -0.0005         calculate D2E/DX2 analytically  !
 ! D32   D(25,8,9,26)         -179.9999         calculate D2E/DX2 analytically  !
 ! D33   D(8,9,10,11)         -179.9994         calculate D2E/DX2 analytically  !
 ! D34   D(8,9,10,27)            0.0            calculate D2E/DX2 analytically  !
 ! D35   D(26,9,10,11)           0.0            calculate D2E/DX2 analytically  !
 ! D36   D(26,9,10,27)         179.9995         calculate D2E/DX2 analytically  !
 ! D37   D(9,10,11,12)        -179.9999         calculate D2E/DX2 analytically  !
 ! D38   D(9,10,11,28)          -0.0003         calculate D2E/DX2 analytically  !
 ! D39   D(27,10,11,12)          0.0007         calculate D2E/DX2 analytically  !
 ! D40   D(27,10,11,28)       -179.9998         calculate D2E/DX2 analytically  !
 ! D41   D(10,11,12,13)        179.9998         calculate D2E/DX2 analytically  !
 ! D42   D(10,11,12,29)         -0.0001         calculate D2E/DX2 analytically  !
 ! D43   D(28,11,12,13)          0.0003         calculate D2E/DX2 analytically  !
 ! D44   D(28,11,12,29)       -179.9996         calculate D2E/DX2 analytically  !
 ! D45   D(11,12,13,14)        179.9998         calculate D2E/DX2 analytically  !
 ! D46   D(11,12,13,30)         -0.0003         calculate D2E/DX2 analytically  !
 ! D47   D(29,12,13,14)         -0.0003         calculate D2E/DX2 analytically  !
 ! D48   D(29,12,13,30)        179.9996         calculate D2E/DX2 analytically  !
 ! D49   D(12,13,14,15)        179.9998         calculate D2E/DX2 analytically  !
 ! D50   D(12,13,14,31)          0.0002         calculate D2E/DX2 analytically  !
 ! D51   D(30,13,14,15)         -0.0001         calculate D2E/DX2 analytically  !
 ! D52   D(30,13,14,31)       -179.9997         calculate D2E/DX2 analytically  !
 ! D53   D(13,14,15,16)       -180.0            calculate D2E/DX2 analytically  !
 ! D54   D(13,14,15,32)          0.0001         calculate D2E/DX2 analytically  !
 ! D55   D(31,14,15,16)         -0.0004         calculate D2E/DX2 analytically  !
 ! D56   D(31,14,15,32)        179.9996         calculate D2E/DX2 analytically  !
 ! D57   D(14,15,16,33)          0.0005         calculate D2E/DX2 analytically  !
 ! D58   D(14,15,16,34)        179.9998         calculate D2E/DX2 analytically  !
 ! D59   D(32,15,16,33)       -179.9996         calculate D2E/DX2 analytically  !
 ! D60   D(32,15,16,34)         -0.0002         calculate D2E/DX2 analytically  !
 --------------------------------------------------------------------------------
 Trust Radius=3.00D-01 FncErr=1.00D-07 GrdErr=1.00D-06
 Number of steps in this run=    151 maximum allowed number of steps=    204.
 GradGradGradGradGradGradGradGradGradGradGradGradGradGradGradGradGradGrad

                          Input orientation:                          
 ---------------------------------------------------------------------
 Center     Atomic      Atomic             Coordinates (Angstroms)
 Number     Number       Type             X           Y           Z
 ---------------------------------------------------------------------
      1          6           0        1.286750   -0.312210   -0.228410
      2          6           0        1.840060    0.513640   -1.123760
      3          6           0        3.265460    0.724010   -1.223700
      4          6           0        3.816450    1.553050   -2.122960
      5          6           0        5.243950    1.765100   -2.224620
      6          6           0        5.793410    2.594590   -3.124550
      7          6           0        7.220590    2.807830   -3.227620
      8          6           0        7.768670    3.637680   -4.128100
      9          6           0        9.195680    3.851540   -4.231890
     10          6           0        9.743760    4.681400   -5.132380
     11          6           0       11.170940    4.894590   -5.235400
     12          6           0       11.720660    5.724040   -6.135250
     13          6           0       13.148260    5.935620   -6.236370
     14          6           0       13.700430    6.764390   -7.135200
     15          6           0       15.126170    6.973330   -7.233460
     16          6           0       15.682150    7.798660   -8.127950
     17          1           0        0.209330   -0.439450   -0.189430
     18          1           0        1.880620   -0.878140    0.482210
     19          1           0        1.194680    1.055660   -1.812000
     20          1           0        3.897470    0.174870   -0.528610
     21          1           0        3.182620    2.101240   -2.817140
     22          1           0        5.877500    1.216750   -1.530280
     23          1           0        5.158830    3.142410   -3.818390
     24          1           0        7.855450    2.260150   -2.533920
     25          1           0        7.133430    4.185160   -4.821610
     26          1           0        9.830920    3.304050   -3.538370
     27          1           0        9.108940    5.229080   -5.826090
     28          1           0       11.805400    4.346700   -4.541490
     29          1           0       11.087450    6.272550   -6.829740
     30          1           0       13.781430    5.387080   -5.541840
     31          1           0       13.069520    7.314080   -7.830820
     32          1           0       15.770070    6.430500   -6.544430
     33          1           0       15.090020    8.365430   -8.839360
     34          1           0       16.759790    7.924480   -8.165260
 ---------------------------------------------------------------------
                    Distance matrix (angstroms):
                    1          2          3          4          5
     1  C    0.000000
     2  C    1.337846   0.000000
     3  C    2.445332   1.444302   0.000000
     4  C    3.669863   2.446404   1.341479   0.000000
     5  C    4.894845   3.790054   2.449517   1.446740   0.000000
     6  C    6.094842   4.895150   3.674620   2.448746   1.341579
     7  C    7.344411   6.216079   4.899087   3.792481   2.449572
     8  C    8.533727   7.343984   6.099501   4.897582   3.674779
     9  C    9.793663   8.654894   7.348344   6.218260   4.898830
    10  C   10.977526   9.793249   8.538565   7.346849   6.099850
    11  C   12.242464  11.097911   9.797147   8.656887   7.347633
    12  C   13.423619  12.242939  10.982442   9.796538   8.538970
    13  C   14.691031  13.542970  12.245713  11.099988   9.796198
    14  C   15.870774  14.692776  13.428351  12.246374  10.982657
    15  C   17.137076  15.986768  14.691755  13.542762  12.242239
    16  C   18.314379  17.138660  15.871154  14.692256  13.424201
    17  H    1.085607   2.107281   3.429764   4.551913   5.860839
    18  H    1.085329   2.125520   2.719337   4.055248   5.062177
    19  H    2.094589   1.088106   2.178123   2.686591   4.131604
    20  H    2.672681   2.168388   1.088183   2.109004   2.686688
    21  H    4.015045   2.681506   2.107766   1.088181   2.170979
    22  H    5.010745   4.118318   2.675731   2.170782   1.088201
    23  H    6.309941   5.018535   4.020687   2.683753   2.108158
    24  H    7.421606   6.420574   5.014420   4.120971   2.675943
    25  H    8.689505   7.427915   6.315513   5.021262   4.021341
    26  H    9.850686   8.801737   7.424255   6.422090   5.013442
    27  H   11.100746   9.858189   8.696201   7.432148   6.317269
    28  H   12.286175  11.210764   9.852014   8.802107   7.421939
    29  H   13.527392  12.297865  11.108443   9.863818   8.698892
    30  H   14.725199  13.633274  12.287236  11.211126   9.849429
    31  H   15.962162  14.742164  13.535237  12.304001  11.111265
    32  H   17.179139  16.076009  14.739046  13.646536  12.297395
    33  H   18.438551  17.226216  16.006555  14.785531  13.574396
    34  H   19.241923  18.085951  16.796695  15.640798  14.347255
                    6          7          8          9         10
     6  C    0.000000
     7  C    1.446699   0.000000
     8  C    2.448837   1.341606   0.000000
     9  C    3.792304   2.449259   1.446674   0.000000
    10  C    4.898104   3.674883   2.449267   1.341619   0.000000
    11  C    6.217999   4.898062   3.792279   2.448803   1.446688
    12  C    7.347793   6.099936   4.898956   3.674855   2.449690
    13  C    8.656773   7.346626   6.218144   4.897368   3.792424
    14  C    9.797628   8.538845   7.348792   6.099728   4.899528
    15  C   11.097609   9.792668   8.654630   7.343412   6.215933
    16  C   12.243510  10.978143   9.794678   8.534245   7.345422
    17  H    7.000163   8.302602   9.448795  10.747491  11.897950
    18  H    6.354408   7.474255   8.735944   9.904681  11.147245
    19  H    5.023884   6.433170   7.432933   8.814126   9.861931
    20  H    4.023498   5.025959   6.319301   7.436613   8.699576
    21  H    2.674719   4.119826   5.011100   6.420433   7.420655
    22  H    2.108841   2.686334   4.023195   5.025051   6.318773
    23  H    1.088215   2.170670   2.674412   4.119467   5.011651
    24  H    2.170876   1.088219   2.108680   2.685487   4.022457
    25  H    2.684321   2.108421   1.088219   2.170702   2.675192
    26  H    4.120202   2.675186   2.170706   1.088230   2.108449
    27  H    5.023106   4.022482   2.685526   2.108700   1.088202
    28  H    6.420407   5.011473   4.119319   2.674261   2.170607
    29  H    7.435232   6.319190   5.025505   4.023544   2.686688
    30  H    8.800554   7.419755   6.419684   5.010285   4.119274
    31  H    9.867337   8.700903   7.438082   6.320452   5.027252
    32  H   11.222456   9.859948   8.812542   7.431116   6.431924
    33  H   12.344578  11.149281   9.907056   8.737690   7.476381
    34  H   13.193861  11.897762  10.747816   9.448598   8.303048
                   11         12         13         14         15
    11  C    0.000000
    12  C    1.341607   0.000000
    13  C    2.448567   1.446732   0.000000
    14  C    3.674740   2.449840   1.341509   0.000000
    15  C    4.894614   3.790025   2.446050   1.444315   0.000000
    16  C    6.095202   4.895744   3.670094   2.445911   1.338057
    17  H   13.193585  14.347547  15.640426  16.797286  18.085347
    18  H   12.342023  13.572249  14.782637  16.004409  17.222710
    19  H   11.224207  12.299615  13.648338  14.741772  16.077856
    20  H    9.865749  11.109906  12.302109  13.533914  14.739667
    21  H    8.801366   9.850516  11.211939  12.288814  13.634131
    22  H    7.434711   8.698502   9.863010  11.108090  12.296437
    23  H    6.420554   7.422282   8.802252   9.852862  11.211000
    24  H    5.023021   6.317275   7.431760   8.696192   9.857135
    25  H    4.120194   5.013630   6.422136   7.424999   8.801977
    26  H    2.684284   4.021350   5.020867   6.315398   7.426774
    27  H    2.170862   2.676125   4.121121   5.015249   6.421071
    28  H    1.088225   2.108155   2.683386   4.020410   5.017310
    29  H    2.108949   1.088179   2.170840   2.676355   4.118901
    30  H    2.674156   2.170818   1.088197   2.107686   2.680689
    31  H    4.024269   2.687491   2.109176   1.088161   2.168585
    32  H    5.022407   4.130888   2.685832   2.178050   1.088133
    33  H    6.355663   5.063767   4.055856   2.720009   2.125597
    34  H    6.999968   5.861374   4.551849   3.430236   2.107523
                   16         17         18         19         20
    16  C    0.000000
    17  H   19.243043   0.000000
    18  H   18.436484   1.853850   0.000000
    19  H   17.182726   2.416403   3.077904   0.000000
    20  H   15.960916   3.754305   2.489633   3.118967   0.000000
    21  H   14.727646   4.711732   4.632237   2.460782   3.075594
    22  H   13.527082   6.055496   4.941025   4.694051   2.451403
    23  H   12.287930   7.106098   6.738445   4.908626   4.606514
    24  H   11.100698   8.440831   7.392192   6.807189   4.902578
    25  H    9.852405   9.528235   9.019952   7.356648   6.706990
    26  H    8.689226  10.853764   9.841903   9.089568   7.352296
    27  H    7.423503  11.962743  11.372836   9.806420   8.987088
    28  H    6.309351  13.278422  12.289743  11.439774   9.800139
    29  H    5.012547  14.404102  13.760912  12.258081  11.339389
    30  H    4.014526  15.709826  14.736738  13.823863  12.247133
    31  H    2.673750  16.849111  16.168192  14.710739  13.726511
    32  H    2.094547  18.158163  17.196125  16.239667  14.706517
    33  H    1.085334  19.333446  18.623198  17.201657  16.168705
    34  H    1.085602  20.186305  19.330146  18.160871  16.846785
                   21         22         23         24         25
    21  H    0.000000
    22  H    3.114596   0.000000
    23  H    2.447844   3.075728   0.000000
    24  H    4.684101   2.451176   3.114483   0.000000
    25  H    4.895868   4.606699   2.448024   3.075793   0.000000
    26  H    6.794617   4.900895   4.683264   2.449720   3.114404
    27  H    7.345640   6.707830   4.897797   4.606969   2.449773
    28  H    9.075671   7.348739   6.793385   4.897564   4.683147
    29  H    9.797302   8.988268   7.349459   6.708148   4.901434
    30  H   11.426089   9.795733   9.075134   7.344557   6.794060
    31  H   12.249958  11.340167   9.802114   8.988097   7.354091
    32  H   13.823136  12.255114  11.438586   9.803939   9.088521
    33  H   14.740875  13.762151  12.293031  11.374182   9.845014
    34  H   15.711526  14.402807  13.279524  11.961768  10.854921
                   26         27         28         29         30
    26  H    0.000000
    27  H    3.075818   0.000000
    28  H    2.447844   3.114432   0.000000
    29  H    4.606949   2.451662   3.075783   0.000000
    30  H    4.894838   4.683794   2.446995   3.114526   0.000000
    31  H    6.707757   4.904321   4.606847   2.452661   3.075642
    32  H    7.354223   6.806620   4.906384   4.693962   2.459390
    33  H    9.020876   7.395256   6.738739   4.943611   4.632129
    34  H    9.527105   8.442298   7.104801   6.057056   4.710771
                   31         32         33         34
    31  H    0.000000
    32  H    3.119052   0.000000
    33  H    2.490966   3.077844   0.000000
    34  H    3.755334   2.416322   1.853909   0.000000
 Stoichiometry    C16H18
 Framework group  C1[X(C16H18)]
 Deg. of freedom    96
 Full point group                 C1      NOp   1
 Largest Abelian subgroup         C1      NOp   1
 Largest concise Abelian subgroup C1      NOp   1
                         Standard orientation:                         
 ---------------------------------------------------------------------
 Center     Atomic      Atomic             Coordinates (Angstroms)
 Number     Number       Type             X           Y           Z
 ---------------------------------------------------------------------
      1          6           0       -9.153139   -0.259643   -0.000002
      2          6           0       -7.984116    0.390908   -0.000001
      3          6           0       -6.707943   -0.285399    0.000001
      4          6           0       -5.537797    0.370591   -0.000002
      5          6           0       -4.258505   -0.305034    0.000003
      6          6           0       -3.089117    0.352511    0.000000
      7          6           0       -1.808989   -0.321439    0.000000
      8          6           0       -0.640327    0.337451   -0.000002
      9          6           0        0.640229   -0.335634    0.000005
     10          6           0        1.808899    0.323268    0.000004
     11          6           0        3.088986   -0.350739   -0.000001
     12          6           0        4.258532    0.306582    0.000001
     13          6           0        5.537479   -0.369679   -0.000001
     14          6           0        6.708279    0.285206   -0.000003
     15          6           0        7.983417   -0.393079   -0.000001
     16          6           0        9.154005    0.255087   -0.000003
     17          1           0      -10.089006    0.290536    0.000001
     18          1           0       -9.213059   -1.343317   -0.000004
     19          1           0       -7.985075    1.479014   -0.000001
     20          1           0       -6.723609   -1.373469   -0.000006
     21          1           0       -5.524377    1.458689    0.000004
     22          1           0       -4.272285   -1.393148   -0.000001
     23          1           0       -3.076599    1.440654   -0.000001
     24          1           0       -1.821165   -1.409590   -0.000004
     25          1           0       -0.628621    1.425607    0.000000
     26          1           0        0.628514   -1.423801    0.000002
     27          1           0        1.821111    1.411401   -0.000001
     28          1           0        3.076312   -1.438890    0.000001
     29          1           0        4.272716    1.394669    0.000005
     30          1           0        5.523234   -1.457782    0.000001
     31          1           0        6.725284    1.373234    0.000000
     32          1           0        7.982513   -1.481212    0.000003
     33          1           0        9.216009    1.338649    0.000001
     34          1           0       10.088748   -0.296988    0.000003
 ---------------------------------------------------------------------
 Rotational constants (GHZ):      9.4570529      0.0739936      0.0734191
 Standard basis: STO-3G (5D, 7F)
 There are    98 symmetry adapted cartesian basis functions of A   symmetry.
 There are    98 symmetry adapted basis functions of A   symmetry.
    98 basis functions,   294 primitive gaussians,    98 cartesian basis functions
    57 alpha electrons       57 beta electrons
       nuclear repulsion energy       802.2124346408 Hartrees.
 NAtoms=   34 NActive=   34 NUniq=   34 SFac= 1.00D+00 NAtFMM=   60 NAOKFM=F Big=F
 Integral buffers will be    131072 words long.
 Raffenetti 2 integral format.
 Two-electron integral symmetry is turned on.
 One-electron integrals computed using PRISM.
 PrsmSu:  requested number of processors reduced to:   9 ShMem   1 Linda.
 NBasis=    98 RedAO= T EigKep=  1.82D-01  NBF=    98
 NBsUse=    98 1.00D-06 EigRej= -1.00D+00 NBFU=    98
 ExpMin= 1.69D-01 ExpMax= 7.16D+01 ExpMxC= 7.16D+01 IAcc=1 IRadAn=         1 AccDes= 0.00D+00
 Harris functional with IExCor=  402 and IRadAn=       1 diagonalized for initial guess.
 HarFok:  IExCor=  402 AccDes= 0.00D+00 IRadAn=         1 IDoV= 1 UseB2=F ITyADJ=14
 ICtDFT=  3500011 ScaDFX=  1.000000  1.000000  1.000000  1.000000
 FoFCou: FMM=F IPFlag=           0 FMFlag=      100000 FMFlg1=           0
         NFxFlg=           0 DoJE=T BraDBF=F KetDBF=T FulRan=T
         wScrn=  0.000000 ICntrl=     500 IOpCl=  0 I1Cent=   200000004 NGrid=           0
         NMat0=    1 NMatS0=      1 NMatT0=    0 NMatD0=    1 NMtDS0=    0 NMtDT0=    0
 Petite list used in FoFCou.
 Keep R1 ints in memory in canonical form, NReq=12739790.
 Requested convergence on RMS density matrix=1.00D-08 within 128 cycles.
 Requested convergence on MAX density matrix=1.00D-06.
 Requested convergence on             energy=1.00D-06.
 No special actions if energy rises.
 Integral accuracy reduced to 1.0D-05 until final iterations.
 Initial convergence to 1.0D-05 achieved.  Increase integral accuracy.
 SCF Done:  E(RB3LYP) =  -612.804645071     A.U. after   13 cycles
            NFock= 13  Conv=0.75D-08     -V/T= 2.0156
 DoSCS=F DFT=T ScalE2(SS,OS)=  1.000000  1.000000
 Range of M.O.s used for correlation:     1    98
 NBasis=    98 NAE=    57 NBE=    57 NFC=     0 NFV=     0
 NROrb=     98 NOA=    57 NOB=    57 NVA=    41 NVB=    41
 PrsmSu:  requested number of processors reduced to:   9 ShMem   1 Linda.
 Symmetrizing basis deriv contribution to polar:
 IMax=3 JMax=2 DiffMx= 0.00D+00
 G2DrvN: will do    35 centers at a time, making    1 passes.
 Calling FoFCou, ICntrl=  3107 FMM=F I1Cent=   0 AccDes= 0.00D+00.
 End of G2Drv F.D. properties file   721 does not exist.
 End of G2Drv F.D. properties file   722 does not exist.
 End of G2Drv F.D. properties file   788 does not exist.
          IDoAtm=1111111111111111111111111111111111
          Differentiating once with respect to electric field.
                with respect to dipole field.
          Differentiating once with respect to nuclear coordinates.
 Keep R1 ints in memory in canonical form, NReq=12698019.
 CalDSu:  requested number of processors reduced to:  10 ShMem   1 Linda.
          There are   105 degrees of freedom in the 1st order CPHF.  IDoFFX=6 NUNeed=     3.
    102 vectors produced by pass  0 Test12= 2.34D-15 1.00D-09 XBig12= 1.97D+03 4.28D+01.
 AX will form   102 AO Fock derivatives at one time.
 CalDSu:  requested number of processors reduced to:  10 ShMem   1 Linda.
    102 vectors produced by pass  1 Test12= 2.34D-15 1.00D-09 XBig12= 5.97D+01 1.71D+00.
 CalDSu:  requested number of processors reduced to:  10 ShMem   1 Linda.
    102 vectors produced by pass  2 Test12= 2.34D-15 1.00D-09 XBig12= 4.84D-02 2.97D-02.
 CalDSu:  requested number of processors reduced to:  10 ShMem   1 Linda.
    102 vectors produced by pass  3 Test12= 2.34D-15 1.00D-09 XBig12= 1.89D-05 9.92D-04.
 CalDSu:  requested number of processors reduced to:  10 ShMem   1 Linda.
     75 vectors produced by pass  4 Test12= 2.34D-15 1.00D-09 XBig12= 4.35D-09 9.44D-06.
 CalDSu:  requested number of processors reduced to:  11 ShMem   1 Linda.
      5 vectors produced by pass  5 Test12= 2.34D-15 1.00D-09 XBig12= 6.51D-13 1.22D-07.
      1 vectors produced by pass  6 Test12= 2.34D-15 1.00D-09 XBig12= 1.17D-16 1.46D-09.
 InvSVY:  IOpt=1 It=  1 EMax= 1.42D-14
 Solved reduced A of dimension   489 with   105 vectors.
 Isotropic polarizability for W=    0.000000      265.19 Bohr**3.
 End of Minotr F.D. properties file   721 does not exist.
 End of Minotr F.D. properties file   722 does not exist.
 End of Minotr F.D. properties file   788 does not exist.

 **********************************************************************

            Population analysis using the SCF density.

 **********************************************************************

 Orbital symmetries:
       Occupied  (A) (A) (A) (A) (A) (A) (A) (A) (A) (A) (A) (A)
                 (A) (A) (A) (A) (A) (A) (A) (A) (A) (A) (A) (A)
                 (A) (A) (A) (A) (A) (A) (A) (A) (A) (A) (A) (A)
                 (A) (A) (A) (A) (A) (A) (A) (A) (A) (A) (A) (A)
                 (A) (A) (A) (A) (A) (A) (A) (A) (A)
       Virtual   (A) (A) (A) (A) (A) (A) (A) (A) (A) (A) (A) (A)
                 (A) (A) (A) (A) (A) (A) (A) (A) (A) (A) (A) (A)
                 (A) (A) (A) (A) (A) (A) (A) (A) (A) (A) (A) (A)
                 (A) (A) (A) (A) (A)
 The electronic state is 1-A.
 Alpha  occ. eigenvalues --  -10.00690 -10.00687 -10.00614 -10.00606 -10.00598
 Alpha  occ. eigenvalues --  -10.00589 -10.00584 -10.00530 -10.00520 -10.00510
 Alpha  occ. eigenvalues --  -10.00500 -10.00493 -10.00480 -10.00480  -9.98972
 Alpha  occ. eigenvalues --   -9.98969  -0.79177  -0.78451  -0.77264  -0.75626
 Alpha  occ. eigenvalues --   -0.73563  -0.71127  -0.68425  -0.65819  -0.59894
 Alpha  occ. eigenvalues --   -0.56839  -0.53472  -0.53463  -0.52784  -0.51928
 Alpha  occ. eigenvalues --   -0.50827  -0.50821  -0.44907  -0.44506  -0.42684
 Alpha  occ. eigenvalues --   -0.42610  -0.40578  -0.39260  -0.37808  -0.36451
 Alpha  occ. eigenvalues --   -0.35457  -0.34463  -0.33545  -0.33060  -0.32731
 Alpha  occ. eigenvalues --   -0.32063  -0.31315  -0.30948  -0.30351  -0.29932
 Alpha  occ. eigenvalues --   -0.29262  -0.28253  -0.25917  -0.22952  -0.19430
 Alpha  occ. eigenvalues --   -0.15529  -0.11831
 Alpha virt. eigenvalues --    0.00100   0.04237   0.08889   0.13370   0.17349
 Alpha virt. eigenvalues --    0.20611   0.23010   0.24461   0.31696   0.33733
 Alpha virt. eigenvalues --    0.36385   0.39014   0.41241   0.42874   0.43454
 Alpha virt. eigenvalues --    0.43826   0.44019   0.44121   0.44158   0.44321
 Alpha virt. eigenvalues --    0.44640   0.44665   0.44754   0.44896   0.45295
 Alpha virt. eigenvalues --    0.54685   0.54818   0.57054   0.58228   0.61722
 Alpha virt. eigenvalues --    0.62208   0.65999   0.66008   0.69825   0.69905
 Alpha virt. eigenvalues --    0.72629   0.73204   0.76003   0.78578   0.80587
 Alpha virt. eigenvalues --    0.81805
          Condensed to atoms (all electrons):
               1          2          3          4          5          6
     1  C    4.855956   0.582105  -0.031050   0.000873  -0.000009   0.000000
     2  C    0.582105   4.783719   0.435842  -0.030573   0.001050  -0.000009
     3  C   -0.031050   0.435842   4.807638   0.566292  -0.030437   0.000876
     4  C    0.000873  -0.030573   0.566292   4.802640   0.441398  -0.030472
     5  C   -0.000009   0.001050  -0.030437   0.441398   4.805691   0.563268
     6  C    0.000000  -0.000009   0.000876  -0.030472   0.563268   4.804380
     7  C    0.000000   0.000000  -0.000009   0.001036  -0.030415   0.442867
     8  C    0.000000   0.000000   0.000000  -0.000009   0.000881  -0.030476
     9  C    0.000000   0.000000   0.000000   0.000000  -0.000009   0.001034
    10  C    0.000000   0.000000   0.000000   0.000000   0.000000  -0.000009
    11  C    0.000000   0.000000   0.000000   0.000000   0.000000   0.000000
    12  C    0.000000   0.000000   0.000000   0.000000   0.000000   0.000000
    13  C    0.000000   0.000000   0.000000   0.000000   0.000000   0.000000
    14  C    0.000000   0.000000   0.000000   0.000000   0.000000   0.000000
    15  C    0.000000   0.000000   0.000000   0.000000   0.000000   0.000000
    16  C    0.000000   0.000000   0.000000   0.000000   0.000000   0.000000
    17  H    0.390760  -0.025604   0.001661  -0.000025   0.000000   0.000000
    18  H    0.389636  -0.024516  -0.004752   0.000032  -0.000001   0.000000
    19  H   -0.027932   0.389722  -0.025300  -0.003812   0.000009   0.000000
    20  H   -0.003850  -0.025609   0.389000  -0.027005  -0.004957   0.000037
    21  H    0.000037  -0.005011  -0.027142   0.388895  -0.025531  -0.003898
    22  H    0.000000   0.000009  -0.003883  -0.025506   0.388875  -0.027074
    23  H    0.000000  -0.000001   0.000037  -0.004999  -0.027135   0.388873
    24  H    0.000000   0.000000   0.000000   0.000009  -0.003882  -0.025499
    25  H    0.000000   0.000000   0.000000  -0.000001   0.000037  -0.004991
    26  H    0.000000   0.000000   0.000000   0.000000   0.000000   0.000009
    27  H    0.000000   0.000000   0.000000   0.000000   0.000000  -0.000001
    28  H    0.000000   0.000000   0.000000   0.000000   0.000000   0.000000
    29  H    0.000000   0.000000   0.000000   0.000000   0.000000   0.000000
    30  H    0.000000   0.000000   0.000000   0.000000   0.000000   0.000000
    31  H    0.000000   0.000000   0.000000   0.000000   0.000000   0.000000
    32  H    0.000000   0.000000   0.000000   0.000000   0.000000   0.000000
    33  H    0.000000   0.000000   0.000000   0.000000   0.000000   0.000000
    34  H    0.000000   0.000000   0.000000   0.000000   0.000000   0.000000
               7          8          9         10         11         12
     1  C    0.000000   0.000000   0.000000   0.000000   0.000000   0.000000
     2  C    0.000000   0.000000   0.000000   0.000000   0.000000   0.000000
     3  C   -0.000009   0.000000   0.000000   0.000000   0.000000   0.000000
     4  C    0.001036  -0.000009   0.000000   0.000000   0.000000   0.000000
     5  C   -0.030415   0.000881  -0.000009   0.000000   0.000000   0.000000
     6  C    0.442867  -0.030476   0.001034  -0.000009   0.000000   0.000000
     7  C    4.805169   0.562384  -0.030441   0.000882  -0.000009   0.000000
     8  C    0.562384   4.804893   0.443206  -0.030442   0.001034  -0.000009
     9  C   -0.030441   0.443206   4.804888   0.562379  -0.030478   0.000880
    10  C    0.000882  -0.030442   0.562379   4.805172   0.442872  -0.030406
    11  C   -0.000009   0.001034  -0.030478   0.442872   4.804378   0.563257
    12  C    0.000000  -0.000009   0.000880  -0.030406   0.563257   4.805691
    13  C    0.000000   0.000000  -0.000009   0.001036  -0.030487   0.441403
    14  C    0.000000   0.000000   0.000000  -0.000009   0.000876  -0.030410
    15  C    0.000000   0.000000   0.000000   0.000000  -0.000009   0.001050
    16  C    0.000000   0.000000   0.000000   0.000000   0.000000  -0.000009
    17  H    0.000000   0.000000   0.000000   0.000000   0.000000   0.000000
    18  H    0.000000   0.000000   0.000000   0.000000   0.000000   0.000000
    19  H    0.000000   0.000000   0.000000   0.000000   0.000000   0.000000
    20  H   -0.000001   0.000000   0.000000   0.000000   0.000000   0.000000
    21  H    0.000009   0.000000   0.000000   0.000000   0.000000   0.000000
    22  H   -0.004963   0.000037  -0.000001   0.000000   0.000000   0.000000
    23  H   -0.025523  -0.003902   0.000009   0.000000   0.000000   0.000000
    24  H    0.388866  -0.027095  -0.004974   0.000037  -0.000001   0.000000
    25  H   -0.027117   0.388872  -0.025513  -0.003892   0.000009   0.000000
    26  H   -0.003892  -0.025513   0.388869  -0.027116  -0.004991   0.000037
    27  H    0.000037  -0.004973  -0.027093   0.388869  -0.025500  -0.003879
    28  H    0.000000   0.000009  -0.003904  -0.025528   0.388873  -0.027137
    29  H    0.000000  -0.000001   0.000037  -0.004957  -0.027065   0.388875
    30  H    0.000000   0.000000   0.000000   0.000009  -0.003905  -0.025543
    31  H    0.000000   0.000000   0.000000  -0.000001   0.000037  -0.004945
    32  H    0.000000   0.000000   0.000000   0.000000   0.000000   0.000009
    33  H    0.000000   0.000000   0.000000   0.000000   0.000000  -0.000001
    34  H    0.000000   0.000000   0.000000   0.000000   0.000000   0.000000
              13         14         15         16         17         18
     1  C    0.000000   0.000000   0.000000   0.000000   0.390760   0.389636
     2  C    0.000000   0.000000   0.000000   0.000000  -0.025604  -0.024516
     3  C    0.000000   0.000000   0.000000   0.000000   0.001661  -0.004752
     4  C    0.000000   0.000000   0.000000   0.000000  -0.000025   0.000032
     5  C    0.000000   0.000000   0.000000   0.000000   0.000000  -0.000001
     6  C    0.000000   0.000000   0.000000   0.000000   0.000000   0.000000
     7  C    0.000000   0.000000   0.000000   0.000000   0.000000   0.000000
     8  C    0.000000   0.000000   0.000000   0.000000   0.000000   0.000000
     9  C   -0.000009   0.000000   0.000000   0.000000   0.000000   0.000000
    10  C    0.001036  -0.000009   0.000000   0.000000   0.000000   0.000000
    11  C   -0.030487   0.000876  -0.000009   0.000000   0.000000   0.000000
    12  C    0.441403  -0.030410   0.001050  -0.000009   0.000000   0.000000
    13  C    4.802654   0.566273  -0.030604   0.000873   0.000000   0.000000
    14  C    0.566273   4.807618   0.435863  -0.031003   0.000000   0.000000
    15  C   -0.030604   0.435863   4.783790   0.582011   0.000000   0.000000
    16  C    0.000873  -0.031003   0.582011   4.856035   0.000000   0.000000
    17  H    0.000000   0.000000   0.000000   0.000000   0.583496  -0.023631
    18  H    0.000000   0.000000   0.000000   0.000000  -0.023631   0.582138
    19  H    0.000000   0.000000   0.000000   0.000000  -0.005299   0.002123
    20  H    0.000000   0.000000   0.000000   0.000000   0.000012   0.000956
    21  H    0.000000   0.000000   0.000000   0.000000  -0.000002   0.000001
    22  H    0.000000   0.000000   0.000000   0.000000   0.000000   0.000000
    23  H    0.000000   0.000000   0.000000   0.000000   0.000000   0.000000
    24  H    0.000000   0.000000   0.000000   0.000000   0.000000   0.000000
    25  H    0.000000   0.000000   0.000000   0.000000   0.000000   0.000000
    26  H   -0.000001   0.000000   0.000000   0.000000   0.000000   0.000000
    27  H    0.000009   0.000000   0.000000   0.000000   0.000000   0.000000
    28  H   -0.005004   0.000037  -0.000001   0.000000   0.000000   0.000000
    29  H   -0.025502  -0.003875   0.000009   0.000000   0.000000   0.000000
    30  H    0.388899  -0.027149  -0.005022   0.000038   0.000000   0.000000
    31  H   -0.026991   0.388995  -0.025594  -0.003837   0.000000   0.000000
    32  H   -0.003822  -0.025307   0.389712  -0.027946   0.000000   0.000000
    33  H    0.000032  -0.004741  -0.024519   0.389622   0.000000   0.000000
    34  H   -0.000025   0.001658  -0.025591   0.390768   0.000000   0.000000
              19         20         21         22         23         24
     1  C   -0.027932  -0.003850   0.000037   0.000000   0.000000   0.000000
     2  C    0.389722  -0.025609  -0.005011   0.000009  -0.000001   0.000000
     3  C   -0.025300   0.389000  -0.027142  -0.003883   0.000037   0.000000
     4  C   -0.003812  -0.027005   0.388895  -0.025506  -0.004999   0.000009
     5  C    0.000009  -0.004957  -0.025531   0.388875  -0.027135  -0.003882
     6  C    0.000000   0.000037  -0.003898  -0.027074   0.388873  -0.025499
     7  C    0.000000  -0.000001   0.000009  -0.004963  -0.025523   0.388866
     8  C    0.000000   0.000000   0.000000   0.000037  -0.003902  -0.027095
     9  C    0.000000   0.000000   0.000000  -0.000001   0.000009  -0.004974
    10  C    0.000000   0.000000   0.000000   0.000000   0.000000   0.000037
    11  C    0.000000   0.000000   0.000000   0.000000   0.000000  -0.000001
    12  C    0.000000   0.000000   0.000000   0.000000   0.000000   0.000000
    13  C    0.000000   0.000000   0.000000   0.000000   0.000000   0.000000
    14  C    0.000000   0.000000   0.000000   0.000000   0.000000   0.000000
    15  C    0.000000   0.000000   0.000000   0.000000   0.000000   0.000000
    16  C    0.000000   0.000000   0.000000   0.000000   0.000000   0.000000
    17  H   -0.005299   0.000012  -0.000002   0.000000   0.000000   0.000000
    18  H    0.002123   0.000956   0.000001   0.000000   0.000000   0.000000
    19  H    0.587760   0.001682   0.000973   0.000000   0.000000   0.000000
    20  H    0.001682   0.587229   0.002109   0.000975   0.000001   0.000000
    21  H    0.000973   0.002109   0.587934   0.001681   0.000981   0.000000
    22  H    0.000000   0.000975   0.001681   0.587793   0.002111   0.000976
    23  H    0.000000   0.000001   0.000981   0.002111   0.588025   0.001681
    24  H    0.000000   0.000000   0.000000   0.000976   0.001681   0.587871
    25  H    0.000000   0.000000   0.000000   0.000001   0.000979   0.002111
    26  H    0.000000   0.000000   0.000000   0.000000   0.000000   0.000978
    27  H    0.000000   0.000000   0.000000   0.000000   0.000000   0.000001
    28  H    0.000000   0.000000   0.000000   0.000000   0.000000   0.000000
    29  H    0.000000   0.000000   0.000000   0.000000   0.000000   0.000000
    30  H    0.000000   0.000000   0.000000   0.000000   0.000000   0.000000
    31  H    0.000000   0.000000   0.000000   0.000000   0.000000   0.000000
    32  H    0.000000   0.000000   0.000000   0.000000   0.000000   0.000000
    33  H    0.000000   0.000000   0.000000   0.000000   0.000000   0.000000
    34  H    0.000000   0.000000   0.000000   0.000000   0.000000   0.000000
              25         26         27         28         29         30
     1  C    0.000000   0.000000   0.000000   0.000000   0.000000   0.000000
     2  C    0.000000   0.000000   0.000000   0.000000   0.000000   0.000000
     3  C    0.000000   0.000000   0.000000   0.000000   0.000000   0.000000
     4  C   -0.000001   0.000000   0.000000   0.000000   0.000000   0.000000
     5  C    0.000037   0.000000   0.000000   0.000000   0.000000   0.000000
     6  C   -0.004991   0.000009  -0.000001   0.000000   0.000000   0.000000
     7  C   -0.027117  -0.003892   0.000037   0.000000   0.000000   0.000000
     8  C    0.388872  -0.025513  -0.004973   0.000009  -0.000001   0.000000
     9  C   -0.025513   0.388869  -0.027093  -0.003904   0.000037   0.000000
    10  C   -0.003892  -0.027116   0.388869  -0.025528  -0.004957   0.000009
    11  C    0.000009  -0.004991  -0.025500   0.388873  -0.027065  -0.003905
    12  C    0.000000   0.000037  -0.003879  -0.027137   0.388875  -0.025543
    13  C    0.000000  -0.000001   0.000009  -0.005004  -0.025502   0.388899
    14  C    0.000000   0.000000   0.000000   0.000037  -0.003875  -0.027149
    15  C    0.000000   0.000000   0.000000  -0.000001   0.000009  -0.005022
    16  C    0.000000   0.000000   0.000000   0.000000   0.000000   0.000038
    17  H    0.000000   0.000000   0.000000   0.000000   0.000000   0.000000
    18  H    0.000000   0.000000   0.000000   0.000000   0.000000   0.000000
    19  H    0.000000   0.000000   0.000000   0.000000   0.000000   0.000000
    20  H    0.000000   0.000000   0.000000   0.000000   0.000000   0.000000
    21  H    0.000000   0.000000   0.000000   0.000000   0.000000   0.000000
    22  H    0.000001   0.000000   0.000000   0.000000   0.000000   0.000000
    23  H    0.000979   0.000000   0.000000   0.000000   0.000000   0.000000
    24  H    0.002111   0.000978   0.000001   0.000000   0.000000   0.000000
    25  H    0.587963   0.001681   0.000977   0.000000   0.000000   0.000000
    26  H    0.001681   0.587965   0.002111   0.000980   0.000001   0.000000
    27  H    0.000977   0.002111   0.587858   0.001681   0.000975   0.000000
    28  H    0.000000   0.000980   0.001681   0.588041   0.002111   0.000982
    29  H    0.000000   0.000001   0.000975   0.002111   0.587757   0.001681
    30  H    0.000000   0.000000   0.000000   0.000982   0.001681   0.587981
    31  H    0.000000   0.000000   0.000000   0.000001   0.000974   0.002109
    32  H    0.000000   0.000000   0.000000   0.000000   0.000000   0.000974
    33  H    0.000000   0.000000   0.000000   0.000000   0.000000   0.000001
    34  H    0.000000   0.000000   0.000000   0.000000   0.000000  -0.000002
              31         32         33         34
     1  C    0.000000   0.000000   0.000000   0.000000
     2  C    0.000000   0.000000   0.000000   0.000000
     3  C    0.000000   0.000000   0.000000   0.000000
     4  C    0.000000   0.000000   0.000000   0.000000
     5  C    0.000000   0.000000   0.000000   0.000000
     6  C    0.000000   0.000000   0.000000   0.000000
     7  C    0.000000   0.000000   0.000000   0.000000
     8  C    0.000000   0.000000   0.000000   0.000000
     9  C    0.000000   0.000000   0.000000   0.000000
    10  C   -0.000001   0.000000   0.000000   0.000000
    11  C    0.000037   0.000000   0.000000   0.000000
    12  C   -0.004945   0.000009  -0.000001   0.000000
    13  C   -0.026991  -0.003822   0.000032  -0.000025
    14  C    0.388995  -0.025307  -0.004741   0.001658
    15  C   -0.025594   0.389712  -0.024519  -0.025591
    16  C   -0.003837  -0.027946   0.389622   0.390768
    17  H    0.000000   0.000000   0.000000   0.000000
    18  H    0.000000   0.000000   0.000000   0.000000
    19  H    0.000000   0.000000   0.000000   0.000000
    20  H    0.000000   0.000000   0.000000   0.000000
    21  H    0.000000   0.000000   0.000000   0.000000
    22  H    0.000000   0.000000   0.000000   0.000000
    23  H    0.000000   0.000000   0.000000   0.000000
    24  H    0.000000   0.000000   0.000000   0.000000
    25  H    0.000000   0.000000   0.000000   0.000000
    26  H    0.000000   0.000000   0.000000   0.000000
    27  H    0.000000   0.000000   0.000000   0.000000
    28  H    0.000001   0.000000   0.000000   0.000000
    29  H    0.000974   0.000000   0.000000   0.000000
    30  H    0.002109   0.000974   0.000001  -0.000002
    31  H    0.587162   0.001681   0.000955   0.000012
    32  H    0.001681   0.587839   0.002123  -0.005298
    33  H    0.000955   0.002123   0.582169  -0.023629
    34  H    0.000012  -0.005298  -0.023629   0.583476
 Mulliken charges:
               1
     1  C   -0.156526
     2  C   -0.081126
     3  C   -0.078774
     4  C   -0.078773
     5  C   -0.078833
     6  C   -0.078916
     7  C   -0.078880
     8  C   -0.078895
     9  C   -0.078880
    10  C   -0.078895
    11  C   -0.078890
    12  C   -0.078862
    13  C   -0.078732
    14  C   -0.078827
    15  C   -0.081094
    16  C   -0.156550
    17  H    0.078633
    18  H    0.078014
    19  H    0.080075
    20  H    0.079421
    21  H    0.078963
    22  H    0.078970
    23  H    0.078864
    24  H    0.078924
    25  H    0.078885
    26  H    0.078884
    27  H    0.078929
    28  H    0.078860
    29  H    0.078983
    30  H    0.078949
    31  H    0.079444
    32  H    0.080036
    33  H    0.077989
    34  H    0.078632
 Sum of Mulliken charges =   0.00000
 Mulliken charges with hydrogens summed into heavy atoms:
               1
     1  C    0.000121
     2  C   -0.001050
     3  C    0.000647
     4  C    0.000190
     5  C    0.000137
     6  C   -0.000052
     7  C    0.000044
     8  C   -0.000010
     9  C    0.000004
    10  C    0.000034
    11  C   -0.000030
    12  C    0.000120
    13  C    0.000216
    14  C    0.000617
    15  C   -0.001057
    16  C    0.000070
 APT charges:
               1
     1  C   -0.189846
     2  C   -0.025799
     3  C   -0.045030
     4  C   -0.024845
     5  C   -0.034912
     6  C   -0.027289
     7  C   -0.031839
     8  C   -0.029606
     9  C   -0.029288
    10  C   -0.032160
    11  C   -0.026993
    12  C   -0.035207
    13  C   -0.024662
    14  C   -0.045128
    15  C   -0.026064
    16  C   -0.189660
    17  H    0.093225
    18  H    0.063407
    19  H    0.031604
    20  H    0.041325
    21  H    0.033945
    22  H    0.038685
    23  H    0.034522
    24  H    0.036902
    25  H    0.035493
    26  H    0.035475
    27  H    0.036926
    28  H    0.034484
    29  H    0.038749
    30  H    0.033891
    31  H    0.041464
    32  H    0.031556
    33  H    0.063454
    34  H    0.093219
 Sum of APT charges =   0.00000
 APT charges with hydrogens summed into heavy atoms:
               1
     1  C   -0.033214
     2  C    0.005805
     3  C   -0.003704
     4  C    0.009099
     5  C    0.003774
     6  C    0.007233
     7  C    0.005063
     8  C    0.005886
     9  C    0.006186
    10  C    0.004765
    11  C    0.007491
    12  C    0.003543
    13  C    0.009229
    14  C   -0.003663
    15  C    0.005493
    16  C   -0.032986
 Electronic spatial extent (au):  <R**2>=          13808.9774
 Charge=              0.0000 electrons
 Dipole moment (field-independent basis, Debye):
    X=             -0.0029    Y=             -0.0002    Z=              0.0000  Tot=              0.0029
 Quadrupole moment (field-independent basis, Debye-Ang):
   XX=            -84.3166   YY=            -81.5436   ZZ=            -95.3130
   XY=              0.1163   XZ=              0.0001   YZ=              0.0000
 Traceless Quadrupole moment (field-independent basis, Debye-Ang):
   XX=              2.7412   YY=              5.5141   ZZ=             -8.2553
   XY=              0.1163   XZ=              0.0001   YZ=              0.0000
 Octapole moment (field-independent basis, Debye-Ang**2):
  XXX=             -0.2247  YYY=              0.0026  ZZZ=              0.0000  XYY=             -0.0030
  XXY=             -0.0004  XXZ=              0.0006  XZZ=             -0.0025  YZZ=              0.0001
  YYZ=              0.0000  XYZ=             -0.0001
 Hexadecapole moment (field-independent basis, Debye-Ang**3):
 XXXX=         -16763.5620 YYYY=           -234.9633 ZZZZ=            -77.2455 XXXY=            -26.8868
 XXXZ=              0.0050 YYYX=              4.9374 YYYZ=              0.0001 ZZZX=              0.0000
 ZZZY=              0.0000 XXYY=          -2762.8471 XXZZ=          -3181.5564 YYZZ=            -59.8961
 XXYZ=              0.0007 YYXZ=              0.0002 ZZXY=              0.2843
 N-N= 8.022124346408D+02 E-N=-3.022481006205D+03  KE= 6.033849680656D+02
  Exact polarizability: 689.134  48.141  87.496   0.000   0.000  18.949
 Approx polarizability:1039.160 136.489 143.318  -0.001   0.000  23.133
 PrsmSu:  requested number of processors reduced to:   9 ShMem   1 Linda.
 PrsmSu:  requested number of processors reduced to:  10 ShMem   1 Linda.
 Calling FoFJK, ICntrl=    100127 FMM=F ISym2X=0 I1Cent= 0 IOpClX= 0 NMat=1 NMatS=1 NMatT=0.
 CoulSu:  requested number of processors reduced to:   9 ShMem   1 Linda.
 ***** Axes restored to original set *****
 -------------------------------------------------------------------
 Center     Atomic                   Forces (Hartrees/Bohr)
 Number     Number              X              Y              Z
 -------------------------------------------------------------------
      1        6          -0.008020529   -0.002457296    0.002028466
      2        6          -0.010955838   -0.004335986    0.003898118
      3        6           0.000336751   -0.005727611    0.006624093
      4        6           0.007650419    0.007493499   -0.007859643
      5        6          -0.008835564   -0.009584388    0.010148476
      6        6           0.010339155    0.009792941   -0.010239939
      7        6          -0.010736604   -0.010408093    0.010907824
      8        6           0.011076277    0.010460071   -0.010933105
      9        6          -0.011072744   -0.010454440    0.010927088
     10        6           0.010741544    0.010399790   -0.010899539
     11        6          -0.010339951   -0.009779954    0.010226485
     12        6           0.008851176    0.009571012   -0.010133309
     13        6          -0.007663390   -0.007484869    0.007850605
     14        6          -0.000289526    0.005714603   -0.006605459
     15        6           0.011154381    0.004480630   -0.004044932
     16        6           0.007801466    0.002289501   -0.001855866
     17        1          -0.008369618   -0.002969120    0.002582200
     18        1           0.004678851   -0.004696342    0.005872278
     19        1          -0.003482203    0.005703099   -0.006911388
     20        1           0.005397681   -0.004316825    0.005507660
     21        1          -0.005478117    0.004397826   -0.005608749
     22        1           0.005498693   -0.004310995    0.005510853
     23        1          -0.005479404    0.004345463   -0.005548147
     24        1           0.005492326   -0.004313988    0.005513659
     25        1          -0.005493859    0.004321974   -0.005522743
     26        1           0.005490294   -0.004316305    0.005516136
     27        1          -0.005503451    0.004319641   -0.005520442
     28        1           0.005478808   -0.004340315    0.005541844
     29        1          -0.005512048    0.004317718   -0.005519725
     30        1           0.005471795   -0.004393174    0.005602113
     31        1          -0.005397837    0.004329607   -0.005522235
     32        1           0.003442033   -0.005707957    0.006912989
     33        1          -0.004647851    0.004710859   -0.005886316
     34        1           0.008376881    0.002949422   -0.002559351
 -------------------------------------------------------------------
 Cartesian Forces:  Max     0.011154381 RMS     0.006986407
 FormGI is forming the generalized inverse of G from B-inverse, IUseBI=4.

 GradGradGradGradGradGradGradGradGradGradGradGradGradGradGradGradGradGrad
 Berny optimization.
 Internal  Forces:  Max     0.037256159 RMS     0.009871252
 Search for a local minimum.
 Step number   1 out of a maximum of  151
 All quantities printed in internal units (Hartrees-Bohrs-Radians)
 Mixed Optimization -- RFO/linear search
 Second derivative matrix not updated -- analytic derivatives used.
 ITU=  0
     Eigenvalues ---    0.00866   0.00870   0.00963   0.00968   0.00998
     Eigenvalues ---    0.01035   0.01077   0.02391   0.02416   0.02437
     Eigenvalues ---    0.02446   0.02471   0.02502   0.02543   0.02578
     Eigenvalues ---    0.02677   0.02781   0.02913   0.03065   0.03099
     Eigenvalues ---    0.03124   0.03274   0.03281   0.03327   0.03330
     Eigenvalues ---    0.03423   0.03632   0.03821   0.03920   0.04545
     Eigenvalues ---    0.04548   0.12354   0.12379   0.12448   0.12570
     Eigenvalues ---    0.12713   0.12875   0.13036   0.13170   0.13277
     Eigenvalues ---    0.13392   0.13523   0.13773   0.13960   0.14179
     Eigenvalues ---    0.14354   0.14503   0.14554   0.15177   0.15776
     Eigenvalues ---    0.16520   0.17191   0.17757   0.18262   0.18687
     Eigenvalues ---    0.18970   0.20018   0.20394   0.20857   0.21378
     Eigenvalues ---    0.21925   0.22434   0.22867   0.37200   0.40250
     Eigenvalues ---    0.42388   0.43651   0.44067   0.44120   0.44144
     Eigenvalues ---    0.44151   0.44181   0.44202   0.44220   0.44235
     Eigenvalues ---    0.44247   0.44249   0.44320   0.44321   0.44498
     Eigenvalues ---    0.44500   0.44550   0.44718   0.45173   0.45510
     Eigenvalues ---    0.45585   0.45709   0.45766   0.70710   0.71579
     Eigenvalues ---    0.72428   0.73150   0.73712   0.74109   0.74367
     Eigenvalues ---    0.74423
 RFO step:  Lambda=-2.18840839D-02 EMin= 8.66387069D-03
 Linear search not attempted -- first point.
 Iteration  1 RMS(Cart)=  0.10409163 RMS(Int)=  0.00012785
 Iteration  2 RMS(Cart)=  0.00020585 RMS(Int)=  0.00000001
 Iteration  3 RMS(Cart)=  0.00000006 RMS(Int)=  0.00000000
 Variable       Old X    -DE/DX   Delta X   Delta X   Delta X     New X
                                 (Linear)    (Quad)   (Total)
    R1        2.52816   0.01811   0.00000   0.01986   0.01986   2.54802
    R2        2.05150   0.00875   0.00000   0.01858   0.01858   2.07008
    R3        2.05097   0.00885   0.00000   0.02003   0.02003   2.07101
    R4        2.72934   0.02760   0.00000   0.05242   0.05242   2.78175
    R5        2.05622   0.00928   0.00000   0.02136   0.02136   2.07758
    R6        2.53503   0.03314   0.00000   0.04092   0.04092   2.57594
    R7        2.05637   0.00883   0.00000   0.02075   0.02075   2.07712
    R8        2.73394   0.01944   0.00000   0.03149   0.03149   2.76543
    R9        2.05636   0.00898   0.00000   0.02102   0.02102   2.07738
   R10        2.53522   0.03632   0.00000   0.04728   0.04728   2.58249
   R11        2.05640   0.00889   0.00000   0.02080   0.02080   2.07720
   R12        2.73386   0.01790   0.00000   0.02631   0.02631   2.76017
   R13        2.05643   0.00892   0.00000   0.02085   0.02085   2.07728
   R14        2.53527   0.03726   0.00000   0.04934   0.04934   2.58461
   R15        2.05644   0.00889   0.00000   0.02080   0.02080   2.07723
   R16        2.73382   0.01756   0.00000   0.02502   0.02502   2.75884
   R17        2.05644   0.00890   0.00000   0.02082   0.02082   2.07725
   R18        2.53529   0.03724   0.00000   0.04932   0.04932   2.58461
   R19        2.05646   0.00889   0.00000   0.02080   0.02080   2.07725
   R20        2.73384   0.01791   0.00000   0.02632   0.02632   2.76017
   R21        2.05640   0.00890   0.00000   0.02083   0.02083   2.07723
   R22        2.53527   0.03629   0.00000   0.04723   0.04723   2.58250
   R23        2.05645   0.00891   0.00000   0.02083   0.02083   2.07728
   R24        2.73393   0.01944   0.00000   0.03150   0.03150   2.76543
   R25        2.05636   0.00891   0.00000   0.02084   0.02084   2.07720
   R26        2.53508   0.03311   0.00000   0.04087   0.04087   2.57595
   R27        2.05639   0.00897   0.00000   0.02099   0.02099   2.07739
   R28        2.72936   0.02756   0.00000   0.05240   0.05240   2.78175
   R29        2.05633   0.00885   0.00000   0.02078   0.02078   2.07711
   R30        2.52856   0.01782   0.00000   0.01950   0.01950   2.54806
   R31        2.05627   0.00926   0.00000   0.02131   0.02131   2.07759
   R32        2.05098   0.00885   0.00000   0.02002   0.02002   2.07101
   R33        2.05149   0.00875   0.00000   0.01859   0.01859   2.07008
    A1        2.10232   0.00397   0.00000   0.02045   0.02045   2.12277
    A2        2.13385  -0.00178   0.00000  -0.00884  -0.00884   2.12500
    A3        2.04702  -0.00219   0.00000  -0.01161  -0.01161   2.03541
    A4        2.14646   0.00572   0.00000   0.01685   0.01685   2.16331
    A5        2.07773  -0.00027   0.00000   0.00992   0.00992   2.08765
    A6        2.05900  -0.00545   0.00000  -0.02677  -0.02677   2.03223
    A7        2.14332   0.00622   0.00000   0.01566   0.01566   2.15898
    A8        2.04372  -0.00277   0.00000  -0.00549  -0.00549   2.03823
    A9        2.09614  -0.00345   0.00000  -0.01016  -0.01016   2.08598
   A10        2.14475   0.00599   0.00000   0.01700   0.01700   2.16175
   A11        2.09408  -0.00330   0.00000  -0.01155  -0.01155   2.08252
   A12        2.04436  -0.00268   0.00000  -0.00545  -0.00545   2.03891
   A13        2.14346   0.00604   0.00000   0.01675   0.01675   2.16021
   A14        2.04403  -0.00261   0.00000  -0.00379  -0.00379   2.04023
   A15        2.09570  -0.00343   0.00000  -0.01295  -0.01295   2.08274
   A16        2.14476   0.00590   0.00000   0.01657   0.01657   2.16133
   A17        2.09454  -0.00330   0.00000  -0.01294  -0.01294   2.08159
   A18        2.04389  -0.00260   0.00000  -0.00363  -0.00363   2.04026
   A19        2.14362   0.00605   0.00000   0.01710   0.01710   2.16072
   A20        2.04421  -0.00264   0.00000  -0.00343  -0.00343   2.04078
   A21        2.09536  -0.00341   0.00000  -0.01367  -0.01367   2.08169
   A22        2.14429   0.00596   0.00000   0.01679   0.01679   2.16107
   A23        2.09493  -0.00336   0.00000  -0.01357  -0.01357   2.08136
   A24        2.04397  -0.00260   0.00000  -0.00322  -0.00322   2.04075
   A25        2.14428   0.00596   0.00000   0.01680   0.01680   2.16108
   A26        2.04396  -0.00260   0.00000  -0.00322  -0.00322   2.04074
   A27        2.09494  -0.00336   0.00000  -0.01358  -0.01358   2.08136
   A28        2.14357   0.00605   0.00000   0.01713   0.01713   2.16070
   A29        2.09540  -0.00342   0.00000  -0.01370  -0.01370   2.08170
   A30        2.04422  -0.00263   0.00000  -0.00343  -0.00343   2.04079
   A31        2.14491   0.00588   0.00000   0.01645   0.01645   2.16137
   A32        2.04380  -0.00258   0.00000  -0.00355  -0.00355   2.04025
   A33        2.09448  -0.00330   0.00000  -0.01290  -0.01290   2.08157
   A34        2.14317   0.00608   0.00000   0.01697   0.01697   2.16014
   A35        2.09586  -0.00346   0.00000  -0.01309  -0.01309   2.08277
   A36        2.04415  -0.00262   0.00000  -0.00388  -0.00388   2.04027
   A37        2.14521   0.00591   0.00000   0.01664   0.01664   2.16185
   A38        2.04410  -0.00264   0.00000  -0.00524  -0.00524   2.03886
   A39        2.09388  -0.00327   0.00000  -0.01140  -0.01140   2.08248
   A40        2.14274   0.00631   0.00000   0.01612   0.01612   2.15886
   A41        2.09642  -0.00349   0.00000  -0.01038  -0.01038   2.08603
   A42        2.04403  -0.00281   0.00000  -0.00574  -0.00574   2.03829
   A43        2.14704   0.00562   0.00000   0.01638   0.01638   2.16342
   A44        2.05883  -0.00542   0.00000  -0.02665  -0.02665   2.03218
   A45        2.07731  -0.00020   0.00000   0.01027   0.01027   2.08758
   A46        2.13364  -0.00175   0.00000  -0.00866  -0.00866   2.12498
   A47        2.10241   0.00394   0.00000   0.02036   0.02036   2.12277
   A48        2.04713  -0.00219   0.00000  -0.01170  -0.01170   2.03543
    D1        3.14159   0.00000   0.00000   0.00000   0.00000   3.14159
    D2        0.00000   0.00000   0.00000   0.00000   0.00000   0.00000
    D3        0.00000   0.00000   0.00000   0.00000   0.00000   0.00000
    D4        3.14159   0.00000   0.00000   0.00000   0.00000   3.14159
    D5        3.14159   0.00000   0.00000   0.00000   0.00000   3.14159
    D6        0.00001   0.00000   0.00000   0.00000   0.00000   0.00000
    D7       -0.00001   0.00000   0.00000   0.00000   0.00000   0.00000
    D8       -3.14159   0.00000   0.00000   0.00000   0.00000  -3.14159
    D9        3.14159   0.00000   0.00000   0.00000   0.00000   3.14159
   D10        0.00001   0.00000   0.00000  -0.00001  -0.00001   0.00001
   D11       -0.00002   0.00000   0.00000   0.00001   0.00001  -0.00001
   D12        3.14159   0.00000   0.00000   0.00000   0.00000   3.14159
   D13       -3.14159   0.00000   0.00000   0.00000   0.00000  -3.14159
   D14        0.00001   0.00000   0.00000  -0.00001  -0.00001   0.00001
   D15       -0.00001   0.00000   0.00000   0.00001   0.00001  -0.00001
   D16        3.14159   0.00000   0.00000   0.00000   0.00000   3.14159
   D17       -3.14159   0.00000   0.00000   0.00000   0.00000  -3.14159
   D18        0.00001   0.00000   0.00000   0.00000   0.00000   0.00000
   D19       -0.00001   0.00000   0.00000   0.00000   0.00000   0.00000
   D20        3.14159   0.00000   0.00000   0.00000   0.00000   3.14159
   D21       -3.14159   0.00000   0.00000   0.00000   0.00000  -3.14159
   D22        0.00001   0.00000   0.00000   0.00000   0.00000   0.00000
   D23        0.00000   0.00000   0.00000   0.00000   0.00000   0.00000
   D24       -3.14159   0.00000   0.00000   0.00000   0.00000  -3.14159
   D25        3.14159   0.00000   0.00000   0.00000   0.00000   3.14159
   D26        0.00000   0.00000   0.00000   0.00000   0.00000   0.00000
   D27       -0.00001   0.00000   0.00000   0.00001   0.00001  -0.00001
   D28        3.14159   0.00000   0.00000   0.00000   0.00000   3.14159
   D29       -3.14159   0.00000   0.00000   0.00000   0.00000  -3.14159
   D30        0.00001   0.00000   0.00000  -0.00001  -0.00001   0.00001
   D31       -0.00001   0.00000   0.00000   0.00000   0.00000   0.00000
   D32       -3.14159   0.00000   0.00000   0.00000   0.00000  -3.14159
   D33       -3.14158   0.00000   0.00000  -0.00001  -0.00001  -3.14159
   D34        0.00000   0.00000   0.00000   0.00000   0.00000   0.00000
   D35        0.00000   0.00000   0.00000   0.00000   0.00000   0.00000
   D36        3.14158   0.00000   0.00000   0.00001   0.00001   3.14159
   D37       -3.14159   0.00000   0.00000   0.00000   0.00000  -3.14159
   D38       -0.00001   0.00000   0.00000   0.00000   0.00000   0.00000
   D39        0.00001   0.00000   0.00000  -0.00001  -0.00001   0.00001
   D40       -3.14159   0.00000   0.00000   0.00000   0.00000  -3.14159
   D41        3.14159   0.00000   0.00000   0.00000   0.00000   3.14159
   D42        0.00000   0.00000   0.00000   0.00000   0.00000   0.00000
   D43        0.00001   0.00000   0.00000   0.00000   0.00000   0.00000
   D44       -3.14159   0.00000   0.00000   0.00000   0.00000  -3.14159
   D45        3.14159   0.00000   0.00000   0.00000   0.00000   3.14159
   D46       -0.00001   0.00000   0.00000   0.00000   0.00000   0.00000
   D47        0.00000   0.00000   0.00000   0.00000   0.00000   0.00000
   D48        3.14159   0.00000   0.00000   0.00000   0.00000   3.14159
   D49        3.14159   0.00000   0.00000   0.00000   0.00000   3.14159
   D50        0.00000   0.00000   0.00000   0.00000   0.00000   0.00000
   D51        0.00000   0.00000   0.00000   0.00000   0.00000   0.00000
   D52       -3.14159   0.00000   0.00000   0.00000   0.00000  -3.14159
   D53       -3.14159   0.00000   0.00000   0.00000   0.00000   3.14159
   D54        0.00000   0.00000   0.00000   0.00000   0.00000   0.00000
   D55       -0.00001   0.00000   0.00000   0.00000   0.00000   0.00000
   D56        3.14159   0.00000   0.00000   0.00000   0.00000   3.14159
   D57        0.00001   0.00000   0.00000   0.00000   0.00000   0.00000
   D58        3.14159   0.00000   0.00000   0.00000   0.00000   3.14159
   D59       -3.14159   0.00000   0.00000   0.00000   0.00000  -3.14159
   D60        0.00000   0.00000   0.00000   0.00000   0.00000   0.00000
         Item               Value     Threshold  Converged?
 Maximum Force            0.037256     0.000015     NO 
 RMS     Force            0.009871     0.000010     NO 
 Maximum Displacement     0.288713     0.000060     NO 
 RMS     Displacement     0.104242     0.000040     NO 
 Predicted change in Energy=-1.137361D-02
 GradGradGradGradGradGradGradGradGradGradGradGradGradGradGradGradGradGrad

                          Input orientation:                          
 ---------------------------------------------------------------------
 Center     Atomic      Atomic             Coordinates (Angstroms)
 Number     Number       Type             X           Y           Z
 ---------------------------------------------------------------------
      1          6           0        1.142642   -0.381656   -0.162851
      2          6           0        1.714084    0.447173   -1.059823
      3          6           0        3.165631    0.666826   -1.167842
      4          6           0        3.738003    1.506108   -2.076755
      5          6           0        5.180406    1.727070   -2.187191
      6          6           0        5.752326    2.568972   -3.099165
      7          6           0        7.191731    2.790556   -3.210619
      8          6           0        7.763361    3.633341   -4.123636
      9          6           0        9.201987    3.855155   -4.235428
     10          6           0        9.773628    4.697940   -5.148442
     11          6           0       11.213038    4.919496   -5.259866
     12          6           0       11.785044    5.761383   -6.171807
     13          6           0       13.227477    5.982213   -6.282093
     14          6           0       13.800143    6.821424   -7.190893
     15          6           0       15.251772    7.040738   -7.298514
     16          6           0       15.823800    7.869427   -8.195270
     17          1           0        0.056550   -0.516543   -0.115938
     18          1           0        1.740076   -0.954184    0.555721
     19          1           0        1.080861    1.004715   -1.764715
     20          1           0        3.804076    0.112178   -0.465764
     21          1           0        3.096399    2.059221   -2.777381
     22          1           0        5.823132    1.174623   -1.487217
     23          1           0        5.108556    3.120902   -3.798651
     24          1           0        7.835944    2.238878   -2.511381
     25          1           0        7.118851    4.184872   -4.822733
     26          1           0        9.846493    3.303622   -3.536328
     27          1           0        9.129431    5.249622   -5.847688
     28          1           0       11.856767    4.367543   -4.560359
     29          1           0       11.142408    6.313876   -6.871823
     30          1           0       13.868914    5.429014   -5.581378
     31          1           0       13.161961    7.376204   -7.893099
     32          1           0       15.884635    6.483009   -6.593439
     33          1           0       15.226784    8.442156   -8.914030
     34          1           0       16.909949    8.003984   -8.241792
 ---------------------------------------------------------------------
                    Distance matrix (angstroms):
                    1          2          3          4          5
     1  C    0.000000
     2  C    1.348356   0.000000
     3  C    2.490343   1.472040   0.000000
     4  C    3.736653   2.500348   1.363131   0.000000
     5  C    4.984798   3.863221   2.494495   1.463402   0.000000
     6  C    6.211065   4.996833   3.746886   2.496497   1.366597
     7  C    7.479525   6.334191   4.989253   3.855346   2.494762
     8  C    8.697237   7.492153   6.219007   4.991828   3.749046
     9  C    9.974442   8.818588   7.484192   6.327165   4.989703
    10  C   11.187151   9.987095   8.704061   7.486777   6.220351
    11  C   12.469749  11.308057   9.979510   8.812466   7.485023
    12  C   13.678641  12.481885  11.193233   9.981568   8.704832
    13  C   14.966202  13.800978  12.475963  11.303562   9.981474
    14  C   16.170655  14.976445  13.683898  12.476124  11.193273
    15  C   17.466458  16.299243  14.976204  13.800933  12.481710
    16  C   18.658417  17.466784  16.170697  14.966448  13.678721
    17  H    1.095442   2.137075   3.489019   4.635625   5.964712
    18  H    1.095929   2.138798   2.762345   4.120033   5.152529
    19  H    2.119389   1.099408   2.194697   2.721979   4.184083
    20  H    2.723758   2.198452   1.099163   2.131360   2.732301
    21  H    4.075637   2.731208   2.129360   1.099303   2.191286
[...]
 92,-0.00685457,0.00512950,-0.00426966,-0.00058809,-0.00022486,-0.00160
 685,0.00000407,-0.00007129,-0.00004955,0.00001089,-0.00003117,0.000026
 83,-0.00001488,0.00000287,-0.00000345,0.00000959,-0.00000976,0.0000123
 1,0.00000408,0.00000074,0.00000018,0.00001513,-0.00001068,0.00001621,0
 .00000670,-0.00000006,0.00000185,0.00002104,-0.00001974,0.00001722,0.0
 0001076,-0.00000014,0.00000489,0.00003182,-0.00001520,0.00003677,0.000
 01149,-0.00000378,0.00001569,0.00009187,-0.00003003,-0.00000480,-0.000
 32452,-0.00004721,-0.00005003,-0.00236452,0.00507817,0.00700880,-0.100
 84601,0.13304650,-0.00004329,0.00000356,-0.00000930,0.00005064,-0.0000
 3708,0.00004291,-0.00003190,0.00002378,-0.00003066,0.00005367,-0.00003
 614,0.00006733,-0.00003061,0.00003206,-0.00004471,0.00006817,-0.000114
 59,0.00004059,-0.00002607,0.00007197,-0.00005746,0.00008454,0.00010979
 ,0.00032153,0.00001428,0.00004272,0.00011332,-0.00089273,-0.00452278,-
 0.00143892,-0.01548311,0.00988882,-0.00919951,-0.12519340,0.11874605,-
 0.19125173,0.00620974,-0.00185777,0.00477174,0.00109520,-0.00141121,0.
 00016359,0.00003951,-0.00006654,-0.00003416,-0.00001997,0.00002417,-0.
 00003861,0.00001886,-0.00000226,0.00000563,-0.00001225,0.00001260,-0.0
 0001561,-0.00000528,-0.00000030,0.00000037,-0.00001950,0.00001620,-0.0
 0001851,-0.00000871,0.00000120,-0.00000128,-0.00002604,0.00001722,-0.0
 0002902,-0.00001426,0.00000384,-0.00000266,-0.00004132,0.00003677,-0.0
 0003245,-0.00001880,0.00001390,-0.00000901,-0.00011345,-0.00000482,-0.
 00004793,0.00037761,0.00001553,-0.00004276,0.00140297,0.00700870,0.003
 44546,0.13169071,-0.13031504,0.19169491,-0.00001457,0.00000130,-0.0000
 0288,0.00001684,-0.00001162,0.00001508,-0.00001035,0.00000776,-0.00000
 990,0.00001776,-0.00001528,0.00001938,-0.00000954,0.00001077,-0.000013
 34,0.00002005,-0.00002207,0.00002772,-0.00000669,0.00001836,-0.0000210
 1,0.00002510,-0.00003637,0.00004304,0.00002062,-0.00000616,0.00000842,
 0.00025874,-0.00013575,0.00019108,0.00269112,0.00135516,-0.00112939,-0
 .01502736,0.01737530,-0.02169728,-0.18043533,0.09801850,-0.12653033,0.
 01251146,-0.01122378,0.01377863,0.00173666,-0.00068877,0.00166408,-0.0
 0028596,0.00004258,-0.00010323,0.00000643,-0.00000094,0.00000170,-0.00
 000414,0.00000422,-0.00000530,-0.00000176,-0.00000011,-0.00000009,-0.0
 0000655,0.00000502,-0.00000649,-0.00000297,0.00000051,-0.00000095,-0.0
 0000896,0.00000670,-0.00000870,-0.00000503,0.00000156,-0.00000239,-0.0
 0001426,0.00000947,-0.00001264,-0.00000800,0.00000530,-0.00000701,-0.0
 0004367,0.00000813,-0.00001457,0.00007655,0.00001643,-0.00001523,-0.00
 001453,-0.00033445,0.00039024,-0.00411022,-0.00181563,0.00126125,0.184
 54373,0.00000151,-0.00000068,0.00000015,-0.00000108,0.00000123,-0.0000
 0193,-0.00000034,-0.00000168,0.00000112,0.00000111,0.00000171,-0.00000
 219,-0.00000328,-0.00000238,0.00000227,0.00000636,0.00000101,-0.000004
 19,-0.00001009,-0.00000984,0.00000121,0.00002231,0.00001119,0.00000455
 ,-0.00002882,-0.00002120,0.00002995,0.00004030,-0.00006559,-0.00002450
 ,-0.00065467,-0.00025010,-0.00164586,-0.00677930,0.00507650,-0.0042182
 2,0.09647453,-0.13738146,0.11828098,0.01429154,-0.00583415,0.01261655,
 0.00141902,-0.00293890,-0.00453043,0.00011052,0.00023292,0.00003941,-0
 .00000073,0.00000024,-0.00000003,0.00000038,-0.00000033,0.00000083,0.0
 0000025,0.00000017,0.00000023,0.00000045,-0.00000023,0.00000095,0.0000
 0051,0.00000021,0.00000056,0.00000014,-0.00000006,0.00000120,0.0000011
 5,0.00000019,0.00000094,-0.00000109,0.00000093,0.00000246,0.00000421,0
 .00000047,0.00000114,-0.00000944,-0.00000131,0.00001033,0.00001365,-0.
 00000703,0.00005507,0.00032573,-0.00004604,0.00000773,-0.00181853,0.00
 206599,0.00226962,-0.10063574,0.13372068,-0.00000312,0.00000013,-0.000
 00114,0.00000296,-0.00000298,0.00000338,-0.00000057,0.00000193,-0.0000
 0295,0.00000052,-0.00000382,0.00000416,0.00000283,0.00000367,-0.000004
 06,-0.00000500,-0.00000703,0.00000441,0.00001173,0.00000404,-0.0000114
 0,-0.00002449,-0.00000131,0.00001227,0.00003450,0.00003221,-0.00002631
 ,-0.00001156,-0.00004207,-0.00004311,0.00118391,-0.00144538,0.00015840
 ,0.00610444,-0.00180870,0.00468992,-0.12475324,0.11843500,-0.19174054,
 -0.01558928,0.01007129,-0.00925836,-0.00076196,-0.00474069,-0.00161751
 ,-0.00018143,0.00003264,0.00020192,0.00000145,-0.00000005,0.00000048,-
 0.00000088,0.00000121,-0.00000113,-0.00000050,0.00000020,0.00000007,-0
 .00000123,0.00000141,-0.00000118,-0.00000095,0.00000056,-0.00000008,-0
 .00000115,0.00000185,-0.00000128,-0.00000191,0.00000098,-0.00000041,-0
 .00000048,0.00000351,-0.00000093,-0.00000576,0.00000125,-0.00000092,0.
 00000566,0.00001208,-0.00000486,-0.00001203,0.00005535,-0.00002527,-0.
 00036963,-0.00005813,-0.00003752,0.00126459,0.00226991,0.00170899,0.13
 131733,-0.13022932,0.19228944,-0.00003361,0.00000273,-0.00000644,0.000
 03951,-0.00002629,0.00003413,-0.00002516,0.00001697,-0.00002200,0.0000
 4340,-0.00003316,0.00004299,-0.00002637,0.00002210,-0.00002807,0.00005
 311,-0.00004572,0.00005585,-0.00003094,0.00003235,-0.00003984,0.000065
 22,-0.00005922,0.00008471,-0.00003819,0.00005812,-0.00007347,0.0000695
 5,-0.00010810,0.00008569,-0.00010396,0.00008408,-0.00012417,0.00167092
 ,-0.00059838,0.00153302,0.01266894,-0.01136201,0.01395712,-0.17945875,
 0.09814664,-0.12670224,-0.01454960,0.01725115,-0.02150645,0.00259419,0
 .00123091,-0.00104057,0.00001461,-0.00000215,0.00000393,-0.00000939,0.
 00000974,-0.00001218,-0.00000407,-0.00000045,0.00000008,-0.00001464,0.
 00001162,-0.00001485,-0.00000655,0.00000045,-0.00000123,-0.00001887,0.
 00001513,-0.00001950,-0.00001026,0.00000116,-0.00000246,-0.00002530,0.
 00002134,-0.00002642,-0.00001734,0.00000117,-0.00000340,-0.00003419,0.
 00003248,-0.00004226,-0.00004930,-0.00000547,0.00000048,-0.00012235,0.
 00009399,-0.00011549,-0.00001632,0.00033405,-0.00038028,-0.00186800,-0
 .00237472,0.00137628,0.18292095,0.00002647,-0.00000242,0.00000482,-0.0
 0003104,0.00002112,-0.00002665,0.00001952,-0.00001366,0.00001709,-0.00
 003349,0.00002364,-0.00003619,0.00001973,-0.00001749,0.00002209,-0.000
 04147,0.00004728,-0.00003475,0.00002108,-0.00002836,0.00002922,-0.0000
 4351,-0.00000541,-0.00011395,0.00001374,-0.00002902,0.00006657,-0.0001
 0508,0.00034578,0.00011849,-0.00004161,0.00013339,0.00003880,0.0014960
 0,-0.00281891,-0.00442468,0.01414216,-0.00572892,0.01243817,0.09643057
 ,-0.13746169,0.11977473,-0.00688084,0.00506238,-0.00421531,-0.00042057
 ,-0.00000357,-0.00139254,-0.00001158,0.00000171,-0.00000307,0.00000743
 ,-0.00000750,0.00000975,0.00000315,0.00000046,0.00000014,0.00001162,-0
 .00000907,0.00001170,0.00000502,-0.00000023,0.00000141,0.00001505,-0.0
 0001068,0.00001620,0.00000774,-0.00000087,0.00000289,0.00002125,-0.000
 01994,0.00001737,0.00001201,-0.00000089,0.00000590,0.00003241,-0.00001
 522,0.00003772,0.00001315,-0.00000431,0.00001657,0.00009407,-0.0000353
 2,-0.00000651,-0.00032053,-0.00004691,-0.00004534,-0.00237266,0.005289
 96,0.00718202,-0.10061998,0.13373576,-0.00003376,0.00000245,-0.0000067
 2,0.00003960,-0.00002617,0.00003473,-0.00002492,0.00001684,-0.00002237
 ,0.00004336,-0.00003616,0.00004104,-0.00002534,0.00002233,-0.00002823,
 0.00005096,-0.00003518,0.00006626,-0.00002687,0.00003034,-0.00004241,0
 .00006662,-0.00011551,0.00003896,-0.00002238,0.00007100,-0.00005632,0.
 00008221,0.00011819,0.00033000,0.00002050,0.00005134,0.00011366,-0.000
 87759,-0.00463360,-0.00154711,-0.01539796,0.00989402,-0.00907205,-0.12
 472707,0.11994592,-0.19225560,0.00626925,-0.00180805,0.00470283,0.0008
 6026,-0.00122780,0.00032202,0.00001478,-0.00000213,0.00000397,-0.00000
 952,0.00000998,-0.00001211,-0.00000406,-0.00000022,0.00000015,-0.00001
 485,0.00001170,-0.00001485,-0.00000649,0.00000095,-0.00000118,-0.00001
 941,0.00001621,-0.00001851,-0.00001003,0.00000224,-0.00000261,-0.00002
 631,0.00001737,-0.00002932,-0.00001588,0.00000482,-0.00000393,-0.00004
 219,0.00003772,-0.00003289,-0.00002094,0.00001471,-0.00001007,-0.00011
 558,-0.00000652,-0.00005316,0.00037313,0.00001996,-0.00004427,0.001373
 90,0.00718182,0.00360630,0.13124420,-0.13147848,0.19264833,-0.00000921
 ,0.00000074,-0.00000172,0.00001079,-0.00000721,0.00000939,-0.00000672,
 0.00000460,-0.00000594,0.00001168,-0.00000913,0.00001171,-0.00000672,0
 .00000593,-0.00000744,0.00001398,-0.00001233,0.00001562,-0.00000709,0.
 00000853,-0.00001049,0.00001668,-0.00001826,0.00002298,-0.00000490,0.0
 0001532,-0.00001752,0.00002341,-0.00003017,0.00003594,0.00002123,-0.00
 001231,0.00001635,0.00026891,-0.00012767,0.00018284,0.00274257,0.00135
 739,-0.00115691,-0.01545158,0.01751780,-0.02190699,-0.17686450,0.09798
 657,-0.12594504,0.01289150,-0.01275772,0.01544276,0.00000406,-0.000000
 59,0.00000107,-0.00000260,0.00000267,-0.00000335,-0.00000109,-0.000000
 08,-0.00000004,-0.00000407,0.00000315,-0.00000406,-0.00000176,0.000000
 25,-0.00000050,-0.00000534,0.00000408,-0.00000528,-0.00000275,0.000000
 67,-0.00000110,-0.00000755,0.00000552,-0.00000721,-0.00000436,0.000001
 47,-0.00000222,-0.00001247,0.00000785,-0.00001059,-0.00000616,0.000004
 69,-0.00000615,-0.00004134,0.00000532,-0.00001111,0.00008488,0.0000149
 0,-0.00001210,0.00000311,-0.00035084,0.00041057,-0.00419049,-0.0018479
 6,0.00134629,0.18065169,-0.00000084,-0.00000025,-0.00000029,0.00000127
 ,-0.00000064,0.00000068,-0.00000123,0.00000002,-0.00000050,0.00000231,
 -0.00000091,0.00000081,-0.00000238,-0.00000033,-0.00000056,0.00000452,
 -0.00000094,0.00000120,-0.00000502,-0.00000082,-0.00000002,0.00000976,
 -0.00000256,0.00000045,-0.00001156,-0.00000605,-0.00000105,0.00002492,
 0.00000401,0.00001083,-0.00003075,-0.00002039,0.00001972,0.00004299,-0
 .00008107,-0.00000707,-0.00069529,-0.00004668,-0.00153693,-0.00662000,
 0.00491582,-0.00397857,0.09611108,-0.14041334,0.11951508,0.01437908,-0
 .00502150,0.01329750,0.00000033,0.00000004,0.00000019,-0.00000026,0.00
 000033,-0.00000015,-0.00000008,0.00000009,0.00000013,-0.00000045,0.000
 00046,-0.00000022,-0.00000011,0.00000017,0.00000020,-0.00000075,0.0000
 0074,-0.00000030,-0.00000012,0.00000032,0.00000035,-0.00000135,0.00000
 120,-0.00000043,0.00000004,0.00000050,0.00000054,-0.00000305,0.0000026
 9,0.00000018,0.00000199,0.00000118,0.00000038,-0.00001224,0.00000185,0
 .00000664,0.00000782,-0.00000852,0.00005012,0.00032748,-0.00004279,0.0
 0000756,-0.00178826,0.00176942,0.00196959,-0.09983067,0.13665877,0.000
 00009,-0.00000014,-0.00000027,-0.00000037,-0.00000017,0.,0.00000078,0.
 00000008,-0.00000032,-0.00000145,-0.00000033,-0.00000017,0.00000213,0.
 00000027,-0.00000071,-0.00000378,-0.00000048,-0.00000012,0.00000511,0.
 00000133,-0.00000142,-0.00000927,-0.00000235,-0.00000124,0.00001341,0.
 00000163,-0.00000650,-0.00002747,0.00000533,0.00000238,0.00003757,0.00
 002156,-0.00002165,-0.00001358,-0.00002409,-0.00006456,0.00120570,-0.0
 0133217,0.00033185,0.00587541,-0.00157072,0.00442690,-0.12378636,0.119
 70217,-0.19503076,-0.01579145,0.01059049,-0.00847944,0.,0.00000010,0.0
 0000006,0.00000001,0.00000014,0.00000006,-0.00000004,0.00000013,0.0000
 0006,0.00000008,0.00000014,0.00000015,-0.00000009,0.00000023,0.0000000
 7,0.00000027,0.00000018,0.00000037,-0.00000020,0.00000043,0.00000012,0
 .00000071,0.00000026,0.00000072,-0.00000058,0.00000069,0.00000012,0.00
 000196,0.00000127,0.00000185,-0.00000304,0.00000064,0.00000029,0.00000
 909,0.00000839,-0.00000007,-0.00000396,0.00005082,-0.00002455,-0.00037
 017,-0.00006010,-0.00003235,0.00127758,0.00196364,0.00150294,0.1298707
 5,-0.13201111,0.19551623,-0.00002170,0.00000163,-0.00000400,0.00002559
 ,-0.00001675,0.00002187,-0.00001622,0.00001049,-0.00001366,0.00002819,
 -0.00002091,0.00002681,-0.00001709,0.00001303,-0.00001664,0.00003459,-
 0.00002677,0.00003482,-0.00002024,0.00001741,-0.00002205,0.00004382,-0
 .00003826,0.00004604,-0.00002458,0.00002715,-0.00003320,0.00005527,-0.
 00004868,0.00007335,-0.00002667,0.00005345,-0.00006680,0.00006261,-0.0
 0009165,0.00005422,-0.00006958,0.00006231,-0.00010047,0.00185501,-0.00
 032504,0.00137293,0.01387876,-0.01157776,0.01430599,-0.17663268,0.0976
 1651,-0.12629168,0.00000945,-0.00000138,0.00000251,-0.00000606,0.00000
 630,-0.00000787,-0.00000260,-0.00000026,0.00000001,-0.00000939,0.00000
 743,-0.00000952,-0.00000414,0.00000038,-0.00000088,-0.00001198,0.00000
 959,-0.00001225,-0.00000628,0.00000095,-0.00000178,-0.00001580,0.00001
 269,-0.00001642,-0.00000973,0.00000143,-0.00000272,-0.00002172,0.00001
 857,-0.00002279,-0.00001663,0.00000119,-0.00000339,-0.00003039,0.00002
 922,-0.00003857,-0.00004913,-0.00000574,0.00000081,-0.00012241,0.00009
 885,-0.00011546,0.00004120,0.00036380,-0.00041090,-0.00159164,-0.00237
 304,0.00123671,0.16907656,0.00002252,-0.00000185,0.00000390,-0.0000264
 8,0.00001715,-0.00002284,0.00001658,-0.00001085,0.00001386,-0.00002896
 ,0.00002182,-0.00002723,0.00001712,-0.00001340,0.00001647,-0.00003482,
 0.00002437,-0.00003795,0.00001955,-0.00001717,0.00002167,-0.00004460,0
 .00005104,-0.00003581,0.00002222,-0.00002889,0.00002958,-0.00004762,-0
 .00001104,-0.00012820,0.00001759,-0.00003333,0.00007025,-0.00011523,0.
 00042653,0.00016122,-0.00002121,0.00012726,0.00010308,0.00160917,-0.00
 348975,-0.00521225,0.01371887,-0.00544452,0.01230078,0.09574445,-0.141
 93914,0.13041583,-0.00000987,0.00000153,-0.00000250,0.00000630,-0.0000
 0645,0.00000827,0.00000267,0.00000033,0.00000014,0.00000974,-0.0000075
 0,0.00000998,0.00000422,-0.00000033,0.00000121,0.00001242,-0.00000976,
 0.00001260,0.00000635,-0.00000093,0.00000243,0.00001631,-0.00001158,0.
 00001770,0.00000959,-0.00000159,0.00000403,0.00002331,-0.00002215,0.00
 001916,0.00001493,-0.00000153,0.00000734,0.00003551,-0.00001581,0.0000
 4379,0.00001918,-0.00000467,0.00001754,0.00010283,-0.00007615,-0.00002
 357,-0.00028507,-0.00003660,-0.00002924,-0.00253776,0.00631378,0.00789
 332,-0.10127215,0.13920820,-0.00002804,0.00000182,-0.00000530,0.000033
 07,-0.00002187,0.00002807,-0.00002068,0.00001325,-0.00001756,0.0000360
 7,-0.00002643,0.00003468,-0.00002135,0.00001606,-0.00002119,0.00004409
 ,-0.00003714,0.00004157,-0.00002452,0.00002146,-0.00002718,0.00005333,
 -0.00003518,0.00006960,-0.00002752,0.00003007,-0.00004247,0.00007212,-
 0.00012830,0.00003657,-0.00002552,0.00007383,-0.00006134,0.00008136,0.
 00016357,0.00039643,-0.00000434,0.00011142,0.00008998,-0.00085332,-0.0
 0540520,-0.00202149,-0.01481019,0.00977734,-0.00867739,-0.12413697,0.1
 3060257,-0.19963528,0.00001228,-0.00000165,0.00000334,-0.00000787,0.00
 000827,-0.00001012,-0.00000335,-0.00000015,0.00000006,-0.00001218,0.00
 000975,-0.00001211,-0.00000530,0.00000083,-0.00000113,-0.00001550,0.00
 001231,-0.00001561,-0.00000800,0.00000189,-0.00000234,-0.00002059,0.00
 001734,-0.00001963,-0.00001212,0.00000321,-0.00000383,-0.00002825,0.00
 001868,-0.00003185,-0.00001920,0.00000597,-0.00000523,-0.00004581,0.00
 004316,-0.00003510,-0.00002787,0.00001505,-0.00001120,-0.00012004,-0.0
 0002397,-0.00008993,0.00033594,0.00003548,-0.00004463,0.00142630,0.007
 90975,0.00442980,0.13093543,-0.14155329,0.20098935,0.00003386,-0.00000
 239,0.00000616,-0.00003998,0.00002602,-0.00003398,0.00002521,-0.000015
 97,0.00002093,-0.00004401,0.00003218,-0.00004115,0.00002652,-0.0000193
 8,0.00002494,-0.00005410,0.00004029,-0.00005295,0.00003129,-0.00002499
 ,0.00003211,-0.00006921,0.00005756,-0.00006699,0.00003637,-0.00003725,
 0.00004583,-0.00008976,0.00005893,-0.00010727,0.00001847,-0.00006352,0
 .00007896,-0.00009862,0.00014539,-0.00001090,-0.00014922,-0.00017818,0
 .00019047,0.00081701,-0.00102656,-0.00004325,-0.00548509,0.00329719,-0
 .00490372,-0.40935361,-0.04133245,0.01025611,-0.00001478,0.00000212,-0
 .00000392,0.00000945,-0.00000987,0.00001228,0.00000406,0.00000033,0.,0
 .00001461,-0.00001158,0.00001478,0.00000643,-0.00000073,0.00000145,0.0
 0001857,-0.00001488,0.00001886,0.00000971,-0.00000173,0.00000292,0.000
 02437,-0.00001945,0.00002515,0.00001484,-0.00000276,0.00000456,0.00003
 356,-0.00002858,0.00003412,0.00002446,-0.00000335,0.00000629,0.0000484
 3,-0.00003983,0.00005936,0.00005493,-0.00000109,0.00000510,0.00007212,
 -0.00014386,0.00012388,0.00047202,0.00001433,0.00004695,0.00147787,0.0
 0046384,0.00047444,-0.00638440,-0.00702767,0.00724853,0.41850863,-0.00
 000488,0.00000017,-0.00000108,0.00000580,-0.00000356,0.00000514,-0.000
 00381,0.00000220,-0.00000326,0.00000675,-0.00000640,0.00000479,-0.0000
 0433,0.00000297,-0.00000380,0.00000783,0.00000026,0.00001410,-0.000006
 03,0.00000264,-0.00000627,0.00001390,-0.00004544,-0.00001742,-0.000014
 66,0.00001034,-0.00000571,-0.00000247,0.00014393,0.00018590,-0.0000784
 3,-0.00000121,-0.00005271,0.00007675,-0.00114698,-0.00059085,-0.000787
 14,0.00025854,-0.00037917,-0.00042876,0.00549064,0.00871017,-0.0234059
 9,0.00274811,0.00098104,-0.03917694,-0.05435468,0.01806686,0.00000212,
 -0.00000029,0.00000059,-0.00000138,0.00000153,-0.00000165,-0.00000059,
 0.00000004,0.00000010,-0.00000215,0.00000171,-0.00000213,-0.00000094,0
 .00000024,-0.00000005,-0.00000287,0.00000287,-0.00000226,-0.00000147,0
 .00000046,-0.00000022,-0.00000365,0.00000111,-0.00000548,-0.00000239,0
 .00000104,-0.00000022,-0.00000640,0.00001621,0.00000511,-0.00000400,0.
 00000078,-0.00000119,-0.00000308,-0.00004436,-0.00004952,-0.00000463,0
 .00000920,0.00000772,-0.00001808,0.00027649,0.00024424,-0.00005721,-0.
 00013391,-0.00004043,0.00059526,-0.00402461,-0.00524159,0.01744602,0.0
 0499299,-0.00165991,0.04586787,0.04579696,0.00000903,-0.00000083,0.000
 00151,-0.00001070,0.00000716,-0.00000890,0.00000693,-0.00000447,0.0000
 0554,-0.00001188,0.00000733,-0.00001244,0.00000762,-0.00000530,0.00000
 691,-0.00001558,0.00001734,-0.00000968,0.00001029,-0.00000817,0.000008
 13,-0.00001674,-0.00001306,-0.00004841,0.00001984,-0.00000796,0.000017
 79,-0.00003660,0.00019203,0.00008099,0.00009613,-0.00005122,0.00002834
 ,0.00006811,-0.00058400,-0.00098799,0.00089137,-0.00031843,0.00045276,
 -0.00073132,0.00865054,0.00306570,0.02583140,0.00364479,0.00401068,0.0
 0777514,0.01785184,-0.05503420,-0.00000392,0.00000059,-0.00000103,0.00
 000251,-0.00000250,0.00000334,0.00000107,0.00000019,0.00000006,0.00000
 393,-0.00000307,0.00000397,0.00000170,-0.00000003,0.00000048,0.0000050
 4,-0.00000345,0.00000563,0.00000262,-0.00000025,0.00000094,0.00000696,
 -0.00000705,0.00000548,0.00000412,-0.00000025,0.00000176,0.00000860,0.
 00000290,0.00001873,0.00000704,-0.00000113,0.00000209,0.00001706,-0.00
 005319,-0.00002419,0.00000918,0.00000807,0.00000793,-0.00002091,0.0002
 3169,0.00022149,0.00012931,-0.00003329,-0.00011286,0.00032318,-0.00525
 469,-0.00254983,-0.02092047,-0.00410126,0.00467243,-0.01347008,-0.0201
 6084,0.04616685\\0.00000041,-0.00000031,0.00000040,0.00000027,-0.00000
 031,0.00000039,0.00000032,-0.00000021,0.00000028,0.00000020,-0.0000002
 1,0.00000026,0.00000021,-0.00000013,0.00000017,0.00000009,-0.00000013,
 0.00000016,0.00000010,-0.00000006,0.00000008,-0.00000005,-0.00000006,0
 .00000006,0.00000005,0.00000005,-0.00000006,-0.00000010,0.00000006,-0.
 00000008,-0.00000009,0.00000013,-0.00000016,-0.00000021,0.00000013,-0.
 00000017,-0.00000020,0.00000021,-0.00000026,-0.00000032,0.00000021,-0.
 00000028,-0.00000027,0.00000031,-0.00000039,-0.00000041,0.00000031,-0.
 00000039,0.00000041,-0.00000036,0.00000045,0.00000046,-0.00000028,0.00
 000037,0.00000026,-0.00000033,0.00000040,0.00000035,-0.00000019,0.0000
 0025,0.00000016,-0.00000025,0.00000030,0.00000025,-0.00000010,0.000000
 14,0.00000005,-0.00000015,0.00000018,0.00000016,-0.00000002,0.00000004
 ,-0.00000006,-0.00000006,0.00000006,0.00000006,0.00000006,-0.00000006,
 -0.00000016,0.00000002,-0.00000004,-0.00000005,0.00000015,-0.00000018,
 -0.00000025,0.00000010,-0.00000014,-0.00000016,0.00000024,-0.00000030,
 -0.00000035,0.00000019,-0.00000025,-0.00000026,0.00000033,-0.00000040,
 -0.00000046,0.00000028,-0.00000037,-0.00000041,0.00000036,-0.00000045\
 \\@


 YOU KNOW YOU'VE SPOKEN TOO LONG WHEN THE AUDIENCE STOPS LOOKING AT
 THEIR WATCHES AND STARTS SHAKING THEM.
 Job cpu time:       0 days  0 hours 31 minutes 21.4 seconds.
 File lengths (MBytes):  RWF=     60 Int=      0 D2E=      0 Chk=      3 Scr=      1
 Normal termination of Gaussian 09 at Tue Feb 26 08:07:38 2019.
