 Entering Gaussian System, Link 0=g09
 Input=c16h34.com
 Output=c16h34.out
 Initial command:
 /home/bing/src/g09_d.01/g09/l1.exe "/data/trash/Gau-4634.inp" -scrdir="/data/trash/"
 Entering Link 1 = /home/bing/src/g09_d.01/g09/l1.exe PID=      4636.
  
 Copyright (c) 1988,1990,1992,1993,1995,1998,2003,2009,2013,
            Gaussian, Inc.  All Rights Reserved.
  
 This is part of the Gaussian(R) 09 program.  It is based on
 the Gaussian(R) 03 system (copyright 2003, Gaussian, Inc.),
 the Gaussian(R) 98 system (copyright 1998, Gaussian, Inc.),
 the Gaussian(R) 94 system (copyright 1995, Gaussian, Inc.),
 the Gaussian 92(TM) system (copyright 1992, Gaussian, Inc.),
 the Gaussian 90(TM) system (copyright 1990, Gaussian, Inc.),
 the Gaussian 88(TM) system (copyright 1988, Gaussian, Inc.),
 the Gaussian 86(TM) system (copyright 1986, Carnegie Mellon
 University), and the Gaussian 82(TM) system (copyright 1983,
 Carnegie Mellon University). Gaussian is a federally registered
 trademark of Gaussian, Inc.
  
 This software contains proprietary and confidential information,
 including trade secrets, belonging to Gaussian, Inc.
  
 This software is provided under written license and may be
 used, copied, transmitted, or stored only in accord with that
 written license.
  
 The following legend is applicable only to US Government
 contracts under FAR:
  
                    RESTRICTED RIGHTS LEGEND
  
 Use, reproduction and disclosure by the US Government is
 subject to restrictions as set forth in subparagraphs (a)
 and (c) of the Commercial Computer Software - Restricted
 Rights clause in FAR 52.227-19.
  
 Gaussian, Inc.
 340 Quinnipiac St., Bldg. 40, Wallingford CT 06492
  
  
 ---------------------------------------------------------------
 Warning -- This program may not be used in any manner that
 competes with the business of Gaussian, Inc. or will provide
 assistance to any competitor of Gaussian, Inc.  The licensee
 of this program is prohibited from giving any competitor of
 Gaussian, Inc. access to this program.  By using this program,
 the user acknowledges that Gaussian, Inc. is engaged in the
 business of creating and licensing software in the field of
 computational chemistry and represents and warrants to the
 licensee that it is not a competitor of Gaussian, Inc. and that
 it will not use this program in any manner prohibited above.
 ---------------------------------------------------------------
  

 Cite this work as:
 Gaussian 09, Revision D.01,
 M. J. Frisch, G. W. Trucks, H. B. Schlegel, G. E. Scuseria, 
 M. A. Robb, J. R. Cheeseman, G. Scalmani, V. Barone, B. Mennucci, 
 G. A. Petersson, H. Nakatsuji, M. Caricato, X. Li, H. P. Hratchian, 
 A. F. Izmaylov, J. Bloino, G. Zheng, J. L. Sonnenberg, M. Hada, 
 M. Ehara, K. Toyota, R. Fukuda, J. Hasegawa, M. Ishida, T. Nakajima, 
 Y. Honda, O. Kitao, H. Nakai, T. Vreven, J. A. Montgomery, Jr., 
 J. E. Peralta, F. Ogliaro, M. Bearpark, J. J. Heyd, E. Brothers, 
 K. N. Kudin, V. N. Staroverov, T. Keith, R. Kobayashi, J. Normand, 
 K. Raghavachari, A. Rendell, J. C. Burant, S. S. Iyengar, J. Tomasi, 
 M. Cossi, N. Rega, J. M. Millam, M. Klene, J. E. Knox, J. B. Cross, 
 V. Bakken, C. Adamo, J. Jaramillo, R. Gomperts, R. E. Stratmann, 
 O. Yazyev, A. J. Austin, R. Cammi, C. Pomelli, J. W. Ochterski, 
 R. L. Martin, K. Morokuma, V. G. Zakrzewski, G. A. Voth, 
 P. Salvador, J. J. Dannenberg, S. Dapprich, A. D. Daniels, 
 O. Farkas, J. B. Foresman, J. V. Ortiz, J. Cioslowski, 
 and D. J. Fox, Gaussian, Inc., Wallingford CT, 2013.
 
 ******************************************
 Gaussian 09:  ES64L-G09RevD.01 24-Apr-2013
                25-Feb-2019 
 ******************************************
 %nproc=6
 Will use up to    6 processors via shared memory.
 -------------------------
 # opt(tight) b3lyp/sto-3g
 -------------------------
 1/7=10,14=-1,18=20,19=15,26=3,38=1/1,3;
 2/9=110,12=2,17=6,18=5,40=1/2;
 3/6=3,11=2,16=1,25=1,30=1,71=1,74=-5/1,2,3;
 4//1;
 5/5=2,38=5/2;
 6/7=2,8=2,9=2,10=2,28=1/1;
 7//1,2,3,16;
 1/7=10,14=-1,18=20,19=15,26=3/3(2);
 2/9=110/2;
 99//99;
 2/9=110/2;
 3/6=3,11=2,16=1,25=1,30=1,71=1,74=-5/1,2,3;
 4/5=5,16=3,69=1/1;
 5/5=2,38=5/2;
 7//1,2,3,16;
 1/7=10,14=-1,18=20,19=15,26=3/3(-5);
 2/9=110/2;
 6/7=2,8=2,9=2,10=2,19=2,28=1/1;
 99/9=1/99;
 ------
 c16h34
 ------
 Symbolic Z-matrix:
 Charge =  0 Multiplicity = 1
 C                    -0.03018  -1.05433  -2.58992 
 C                     0.39095  -2.42856  -1.99394 
 C                     1.67163  -2.32413  -1.10782 
 C                     2.09377  -3.70273  -0.51018 
 C                     3.37445  -3.59782   0.37584 
 C                     3.79674  -4.97647   0.97359 
 C                     5.07747  -4.87137   1.8596 
 C                     5.49985  -6.24997   2.45741 
 C                     6.78058  -6.14481   3.34341 
 C                     7.20296  -7.52342   3.94122 
 C                     8.48368  -7.41832   4.82723 
 C                     8.90596  -8.79698   5.42498 
 C                     10.18665  -8.69208   6.31101 
 C                     10.60877  -10.07069   6.90864 
 C                     11.88945  -9.96628   7.79476 
 C                     12.31056  -11.34051   8.39073 
 H                    -0.93457  -1.16084  -3.20859 
 H                     0.77265  -0.64139  -3.21982 
 H                    -0.24369  -0.33165  -1.78744 
 H                     0.57468  -3.14288  -2.81551 
 H                    -0.43814  -2.83422  -1.3881 
 H                     1.48846  -1.61037  -0.28561 
 H                     2.50139  -1.91907  -1.71317 
 H                     2.27662  -4.41624  -1.3327 
 H                     1.26367  -4.10754   0.0949 
 H                     3.19155  -2.88428   1.19831 
 H                     4.2045   -3.19298  -0.22929 
 H                     3.97966  -5.69001   0.15113 
 H                     2.96671  -5.38131   1.57874 
 H                     4.89452  -4.1578    2.68204 
 H                     5.90747  -4.46651   1.25444 
 H                     5.6828   -6.96354   1.63498 
 H                     4.66985  -6.65483   3.06258 
 H                     6.59763  -5.43125   4.16585 
 H                     7.61058  -5.73996   2.73825 
 H                     7.3859   -8.23698   3.11879 
 H                     6.37295  -7.92827   4.54639 
 H                     8.30076  -6.70478   5.64969 
 H                     9.31372  -7.01349   4.22209 
 H                     9.08886  -9.51052   4.60251 
 H                     8.07592  -9.20181   6.03011 
 H                     10.0038  -7.97857   7.13352 
 H                     11.01675  -8.28728   5.70592 
 H                     10.79193  -10.78444   6.08642 
 H                     9.779    -10.47574   7.51399 
 H                     11.70572  -9.25195   8.61634 
 H                     12.71854  -9.56062   7.18893 
 H                     11.50773  -11.75345   9.02062 
 H                     13.21495  -11.23401   9.00942 
 H                     12.52407  -12.06319   7.58825 
 

 GradGradGradGradGradGradGradGradGradGradGradGradGradGradGradGradGradGrad
 Berny optimization.
 Initialization pass.
                           ----------------------------
                           !    Initial Parameters    !
                           ! (Angstroms and Degrees)  !
 --------------------------                            --------------------------
 ! Name  Definition              Value          Derivative Info.                !
 --------------------------------------------------------------------------------
 ! R1    R(1,2)                  1.556          estimate D2E/DX2                !
 ! R2    R(1,17)                 1.1009         estimate D2E/DX2                !
 ! R3    R(1,18)                 1.1008         estimate D2E/DX2                !
 ! R4    R(1,19)                 1.1008         estimate D2E/DX2                !
 ! R5    R(2,3)                  1.5608         estimate D2E/DX2                !
 ! R6    R(2,20)                 1.1041         estimate D2E/DX2                !
 ! R7    R(2,21)                 1.1041         estimate D2E/DX2                !
 ! R8    R(3,4)                  1.5607         estimate D2E/DX2                !
 ! R9    R(3,22)                 1.1041         estimate D2E/DX2                !
 ! R10   R(3,23)                 1.1041         estimate D2E/DX2                !
 ! R11   R(4,5)                  1.5608         estimate D2E/DX2                !
 ! R12   R(4,24)                 1.1041         estimate D2E/DX2                !
 ! R13   R(4,25)                 1.1041         estimate D2E/DX2                !
 ! R14   R(5,6)                  1.5609         estimate D2E/DX2                !
 ! R15   R(5,26)                 1.1041         estimate D2E/DX2                !
 ! R16   R(5,27)                 1.1041         estimate D2E/DX2                !
 ! R17   R(6,7)                  1.5609         estimate D2E/DX2                !
 ! R18   R(6,28)                 1.1041         estimate D2E/DX2                !
 ! R19   R(6,29)                 1.1041         estimate D2E/DX2                !
 ! R20   R(7,8)                  1.5609         estimate D2E/DX2                !
 ! R21   R(7,30)                 1.1041         estimate D2E/DX2                !
 ! R22   R(7,31)                 1.1041         estimate D2E/DX2                !
 ! R23   R(8,9)                  1.5609         estimate D2E/DX2                !
 ! R24   R(8,32)                 1.1041         estimate D2E/DX2                !
 ! R25   R(8,33)                 1.1041         estimate D2E/DX2                !
 ! R26   R(9,10)                 1.5609         estimate D2E/DX2                !
 ! R27   R(9,34)                 1.1041         estimate D2E/DX2                !
 ! R28   R(9,35)                 1.1041         estimate D2E/DX2                !
 ! R29   R(10,11)                1.5609         estimate D2E/DX2                !
 ! R30   R(10,36)                1.1041         estimate D2E/DX2                !
 ! R31   R(10,37)                1.1041         estimate D2E/DX2                !
 ! R32   R(11,12)                1.5609         estimate D2E/DX2                !
 ! R33   R(11,38)                1.1041         estimate D2E/DX2                !
 ! R34   R(11,39)                1.1041         estimate D2E/DX2                !
 ! R35   R(12,13)                1.5608         estimate D2E/DX2                !
 ! R36   R(12,40)                1.1041         estimate D2E/DX2                !
 ! R37   R(12,41)                1.1041         estimate D2E/DX2                !
 ! R38   R(13,14)                1.5607         estimate D2E/DX2                !
 ! R39   R(13,42)                1.1041         estimate D2E/DX2                !
 ! R40   R(13,43)                1.1041         estimate D2E/DX2                !
 ! R41   R(14,15)                1.5608         estimate D2E/DX2                !
 ! R42   R(14,44)                1.1041         estimate D2E/DX2                !
 ! R43   R(14,45)                1.1041         estimate D2E/DX2                !
 ! R44   R(15,16)                1.556          estimate D2E/DX2                !
 ! R45   R(15,46)                1.1041         estimate D2E/DX2                !
 ! R46   R(15,47)                1.1041         estimate D2E/DX2                !
 ! R47   R(16,48)                1.1008         estimate D2E/DX2                !
 ! R48   R(16,49)                1.1009         estimate D2E/DX2                !
 ! R49   R(16,50)                1.1008         estimate D2E/DX2                !
 ! A1    A(2,1,17)             110.618          estimate D2E/DX2                !
 ! A2    A(2,1,18)             110.676          estimate D2E/DX2                !
 ! A3    A(2,1,19)             110.676          estimate D2E/DX2                !
 ! A4    A(17,1,18)            108.2908         estimate D2E/DX2                !
 ! A5    A(17,1,19)            108.2908         estimate D2E/DX2                !
 ! A6    A(18,1,19)            108.1991         estimate D2E/DX2                !
 ! A7    A(1,2,3)              112.3605         estimate D2E/DX2                !
 ! A8    A(1,2,20)             109.3562         estimate D2E/DX2                !
 ! A9    A(1,2,21)             109.3562         estimate D2E/DX2                !
 ! A10   A(3,2,20)             109.2202         estimate D2E/DX2                !
 ! A11   A(3,2,21)             109.2202         estimate D2E/DX2                !
 ! A12   A(20,2,21)            107.1912         estimate D2E/DX2                !
 ! A13   A(2,3,4)              112.3469         estimate D2E/DX2                !
 ! A14   A(2,3,22)             109.2632         estimate D2E/DX2                !
 ! A15   A(2,3,23)             109.2632         estimate D2E/DX2                !
 ! A16   A(4,3,22)             109.3133         estimate D2E/DX2                !
 ! A17   A(4,3,23)             109.3133         estimate D2E/DX2                !
 ! A18   A(22,3,23)            107.206          estimate D2E/DX2                !
 ! A19   A(3,4,5)              112.3286         estimate D2E/DX2                !
 ! A20   A(3,4,24)             109.29           estimate D2E/DX2                !
 ! A21   A(3,4,25)             109.29           estimate D2E/DX2                !
 ! A22   A(5,4,24)             109.2951         estimate D2E/DX2                !
 ! A23   A(5,4,25)             109.2951         estimate D2E/DX2                !
 ! A24   A(24,4,25)            107.2081         estimate D2E/DX2                !
 ! A25   A(4,5,6)              112.3341         estimate D2E/DX2                !
 ! A26   A(4,5,26)             109.2916         estimate D2E/DX2                !
 ! A27   A(4,5,27)             109.2916         estimate D2E/DX2                !
 ! A28   A(6,5,26)             109.2904         estimate D2E/DX2                !
 ! A29   A(6,5,27)             109.2904         estimate D2E/DX2                !
 ! A30   A(26,5,27)            107.2085         estimate D2E/DX2                !
 ! A31   A(5,6,7)              112.3272         estimate D2E/DX2                !
 ! A32   A(5,6,28)             109.2911         estimate D2E/DX2                !
 ! A33   A(5,6,29)             109.2911         estimate D2E/DX2                !
 ! A34   A(7,6,28)             109.2941         estimate D2E/DX2                !
 ! A35   A(7,6,29)             109.2941         estimate D2E/DX2                !
 ! A36   A(28,6,29)            107.2095         estimate D2E/DX2                !
 ! A37   A(6,7,8)              112.3317         estimate D2E/DX2                !
 ! A38   A(6,7,30)             109.2926         estimate D2E/DX2                !
 ! A39   A(6,7,31)             109.2926         estimate D2E/DX2                !
 ! A40   A(8,7,30)             109.2905         estimate D2E/DX2                !
 ! A41   A(8,7,31)             109.2905         estimate D2E/DX2                !
 ! A42   A(30,7,31)            107.2089         estimate D2E/DX2                !
 ! A43   A(7,8,9)              112.3298         estimate D2E/DX2                !
 ! A44   A(7,8,32)             109.2907         estimate D2E/DX2                !
 ! A45   A(7,8,33)             109.2907         estimate D2E/DX2                !
 ! A46   A(9,8,32)             109.2933         estimate D2E/DX2                !
 ! A47   A(9,8,33)             109.2933         estimate D2E/DX2                !
 ! A48   A(32,8,33)            107.2091         estimate D2E/DX2                !
 ! A49   A(8,9,10)             112.3296         estimate D2E/DX2                !
 ! A50   A(8,9,34)             109.2933         estimate D2E/DX2                !
 ! A51   A(8,9,35)             109.2933         estimate D2E/DX2                !
 ! A52   A(10,9,34)            109.2908         estimate D2E/DX2                !
 ! A53   A(10,9,35)            109.2908         estimate D2E/DX2                !
 ! A54   A(34,9,35)            107.2091         estimate D2E/DX2                !
 ! A55   A(9,10,11)            112.3319         estimate D2E/DX2                !
 ! A56   A(9,10,36)            109.2904         estimate D2E/DX2                !
 ! A57   A(9,10,37)            109.2904         estimate D2E/DX2                !
 ! A58   A(11,10,36)           109.2926         estimate D2E/DX2                !
 ! A59   A(11,10,37)           109.2926         estimate D2E/DX2                !
 ! A60   A(36,10,37)           107.2089         estimate D2E/DX2                !
 ! A61   A(10,11,12)           112.3271         estimate D2E/DX2                !
 ! A62   A(10,11,38)           109.2941         estimate D2E/DX2                !
 ! A63   A(10,11,39)           109.2941         estimate D2E/DX2                !
 ! A64   A(12,11,38)           109.2911         estimate D2E/DX2                !
 ! A65   A(12,11,39)           109.2911         estimate D2E/DX2                !
 ! A66   A(38,11,39)           107.2095         estimate D2E/DX2                !
 ! A67   A(11,12,13)           112.3342         estimate D2E/DX2                !
 ! A68   A(11,12,40)           109.2904         estimate D2E/DX2                !
 ! A69   A(11,12,41)           109.2904         estimate D2E/DX2                !
 ! A70   A(13,12,40)           109.2916         estimate D2E/DX2                !
 ! A71   A(13,12,41)           109.2916         estimate D2E/DX2                !
 ! A72   A(40,12,41)           107.2085         estimate D2E/DX2                !
 ! A73   A(12,13,14)           112.3285         estimate D2E/DX2                !
 ! A74   A(12,13,42)           109.2951         estimate D2E/DX2                !
 ! A75   A(12,13,43)           109.2951         estimate D2E/DX2                !
 ! A76   A(14,13,42)           109.2901         estimate D2E/DX2                !
 ! A77   A(14,13,43)           109.2901         estimate D2E/DX2                !
 ! A78   A(42,13,43)           107.2081         estimate D2E/DX2                !
 ! A79   A(13,14,15)           112.347          estimate D2E/DX2                !
 ! A80   A(13,14,44)           109.3133         estimate D2E/DX2                !
 ! A81   A(13,14,45)           109.3133         estimate D2E/DX2                !
 ! A82   A(15,14,44)           109.2632         estimate D2E/DX2                !
 ! A83   A(15,14,45)           109.2632         estimate D2E/DX2                !
 ! A84   A(44,14,45)           107.206          estimate D2E/DX2                !
 ! A85   A(14,15,16)           112.3605         estimate D2E/DX2                !
 ! A86   A(14,15,46)           109.2202         estimate D2E/DX2                !
 ! A87   A(14,15,47)           109.2202         estimate D2E/DX2                !
 ! A88   A(16,15,46)           109.3562         estimate D2E/DX2                !
 ! A89   A(16,15,47)           109.3562         estimate D2E/DX2                !
 ! A90   A(46,15,47)           107.1912         estimate D2E/DX2                !
 ! A91   A(15,16,48)           110.676          estimate D2E/DX2                !
 ! A92   A(15,16,49)           110.618          estimate D2E/DX2                !
 ! A93   A(15,16,50)           110.676          estimate D2E/DX2                !
 ! A94   A(48,16,49)           108.2908         estimate D2E/DX2                !
 ! A95   A(48,16,50)           108.1991         estimate D2E/DX2                !
 ! A96   A(49,16,50)           108.2908         estimate D2E/DX2                !
 ! D1    D(17,1,2,3)          -179.9999         estimate D2E/DX2                !
 ! D2    D(17,1,2,20)           58.5469         estimate D2E/DX2                !
 ! D3    D(17,1,2,21)          -58.5467         estimate D2E/DX2                !
 ! D4    D(18,1,2,3)            59.9744         estimate D2E/DX2                !
 ! D5    D(18,1,2,20)          -61.4788         estimate D2E/DX2                !
 ! D6    D(18,1,2,21)         -178.5724         estimate D2E/DX2                !
 ! D7    D(19,1,2,3)           -59.9743         estimate D2E/DX2                !
 ! D8    D(19,1,2,20)          178.5725         estimate D2E/DX2                !
 ! D9    D(19,1,2,21)           61.4789         estimate D2E/DX2                !
 ! D10   D(1,2,3,4)           -180.0            estimate D2E/DX2                !
 ! D11   D(1,2,3,22)            58.5025         estimate D2E/DX2                !
 ! D12   D(1,2,3,23)           -58.5025         estimate D2E/DX2                !
 ! D13   D(20,2,3,4)           -58.4691         estimate D2E/DX2                !
 ! D14   D(20,2,3,22)         -179.9666         estimate D2E/DX2                !
 ! D15   D(20,2,3,23)           63.0284         estimate D2E/DX2                !
 ! D16   D(21,2,3,4)            58.4691         estimate D2E/DX2                !
 ! D17   D(21,2,3,22)          -63.0284         estimate D2E/DX2                !
 ! D18   D(21,2,3,23)          179.9666         estimate D2E/DX2                !
 ! D19   D(2,3,4,5)           -180.0            estimate D2E/DX2                !
 ! D20   D(2,3,4,24)            58.5191         estimate D2E/DX2                !
 ! D21   D(2,3,4,25)           -58.519          estimate D2E/DX2                !
 ! D22   D(22,3,4,5)           -58.5311         estimate D2E/DX2                !
 ! D23   D(22,3,4,24)          179.988          estimate D2E/DX2                !
 ! D24   D(22,3,4,25)           62.9498         estimate D2E/DX2                !
 ! D25   D(23,3,4,5)            58.5311         estimate D2E/DX2                !
 ! D26   D(23,3,4,24)          -62.9498         estimate D2E/DX2                !
 ! D27   D(23,3,4,25)         -179.9879         estimate D2E/DX2                !
 ! D28   D(3,4,5,6)            180.0            estimate D2E/DX2                !
 ! D29   D(3,4,5,26)            58.5202         estimate D2E/DX2                !
 ! D30   D(3,4,5,27)           -58.5203         estimate D2E/DX2                !
 ! D31   D(24,4,5,6)           -58.522          estimate D2E/DX2                !
 ! D32   D(24,4,5,26)          179.9983         estimate D2E/DX2                !
 ! D33   D(24,4,5,27)           62.9578         estimate D2E/DX2                !
 ! D34   D(25,4,5,6)            58.5219         estimate D2E/DX2                !
 ! D35   D(25,4,5,26)          -62.9578         estimate D2E/DX2                !
 ! D36   D(25,4,5,27)         -179.9983         estimate D2E/DX2                !
 ! D37   D(4,5,6,7)            180.0            estimate D2E/DX2                !
 ! D38   D(4,5,6,28)            58.5205         estimate D2E/DX2                !
 ! D39   D(4,5,6,29)           -58.5205         estimate D2E/DX2                !
 ! D40   D(26,5,6,7)           -58.5196         estimate D2E/DX2                !
 ! D41   D(26,5,6,28)         -179.9991         estimate D2E/DX2                !
 ! D42   D(26,5,6,29)           62.9599         estimate D2E/DX2                !
 ! D43   D(27,5,6,7)            58.5196         estimate D2E/DX2                !
 ! D44   D(27,5,6,28)          -62.9599         estimate D2E/DX2                !
 ! D45   D(27,5,6,29)          179.999          estimate D2E/DX2                !
 ! D46   D(5,6,7,8)            180.0            estimate D2E/DX2                !
 ! D47   D(5,6,7,30)            58.521          estimate D2E/DX2                !
 ! D48   D(5,6,7,31)           -58.5211         estimate D2E/DX2                !
 ! D49   D(28,6,7,8)           -58.5223         estimate D2E/DX2                !
 ! D50   D(28,6,7,30)          179.9988         estimate D2E/DX2                !
 ! D51   D(28,6,7,31)           62.9567         estimate D2E/DX2                !
 ! D52   D(29,6,7,8)            58.5222         estimate D2E/DX2                !
 ! D53   D(29,6,7,30)          -62.9567         estimate D2E/DX2                !
 ! D54   D(29,6,7,31)         -179.9988         estimate D2E/DX2                !
 ! D55   D(6,7,8,9)            180.0            estimate D2E/DX2                !
 ! D56   D(6,7,8,32)            58.5201         estimate D2E/DX2                !
 ! D57   D(6,7,8,33)           -58.5201         estimate D2E/DX2                !
 ! D58   D(30,7,8,9)           -58.5198         estimate D2E/DX2                !
 ! D59   D(30,7,8,32)         -179.9997         estimate D2E/DX2                !
 ! D60   D(30,7,8,33)           62.9601         estimate D2E/DX2                !
 ! D61   D(31,7,8,9)            58.5198         estimate D2E/DX2                !
 ! D62   D(31,7,8,32)          -62.9601         estimate D2E/DX2                !
 ! D63   D(31,7,8,33)          179.9997         estimate D2E/DX2                !
 ! D64   D(7,8,9,10)           180.0            estimate D2E/DX2                !
 ! D65   D(7,8,9,34)            58.5215         estimate D2E/DX2                !
 ! D66   D(7,8,9,35)           -58.5216         estimate D2E/DX2                !
 ! D67   D(32,8,9,10)          -58.5216         estimate D2E/DX2                !
 ! D68   D(32,8,9,34)          180.0            estimate D2E/DX2                !
 ! D69   D(32,8,9,35)           62.9568         estimate D2E/DX2                !
 ! D70   D(33,8,9,10)           58.5215         estimate D2E/DX2                !
 ! D71   D(33,8,9,34)          -62.9569         estimate D2E/DX2                !
 ! D72   D(33,8,9,35)          180.0            estimate D2E/DX2                !
 ! D73   D(8,9,10,11)          180.0            estimate D2E/DX2                !
 ! D74   D(8,9,10,36)           58.5198         estimate D2E/DX2                !
 ! D75   D(8,9,10,37)          -58.5198         estimate D2E/DX2                !
 ! D76   D(34,9,10,11)         -58.5201         estimate D2E/DX2                !
 ! D77   D(34,9,10,36)         179.9997         estimate D2E/DX2                !
 ! D78   D(34,9,10,37)          62.9601         estimate D2E/DX2                !
 ! D79   D(35,9,10,11)          58.5201         estimate D2E/DX2                !
 ! D80   D(35,9,10,36)         -62.9601         estimate D2E/DX2                !
 ! D81   D(35,9,10,37)        -179.9997         estimate D2E/DX2                !
 ! D82   D(9,10,11,12)         180.0            estimate D2E/DX2                !
 ! D83   D(9,10,11,38)          58.5223         estimate D2E/DX2                !
 ! D84   D(9,10,11,39)         -58.5223         estimate D2E/DX2                !
 ! D85   D(36,10,11,12)        -58.521          estimate D2E/DX2                !
 ! D86   D(36,10,11,38)       -179.9988         estimate D2E/DX2                !
 ! D87   D(36,10,11,39)         62.9567         estimate D2E/DX2                !
 ! D88   D(37,10,11,12)         58.521          estimate D2E/DX2                !
 ! D89   D(37,10,11,38)        -62.9567         estimate D2E/DX2                !
 ! D90   D(37,10,11,39)        179.9987         estimate D2E/DX2                !
 ! D91   D(10,11,12,13)       -180.0            estimate D2E/DX2                !
 ! D92   D(10,11,12,40)         58.5196         estimate D2E/DX2                !
 ! D93   D(10,11,12,41)        -58.5195         estimate D2E/DX2                !
 ! D94   D(38,11,12,13)        -58.5205         estimate D2E/DX2                !
 ! D95   D(38,11,12,40)        179.999          estimate D2E/DX2                !
 ! D96   D(38,11,12,41)         62.9599         estimate D2E/DX2                !
 ! D97   D(39,11,12,13)         58.5206         estimate D2E/DX2                !
 ! D98   D(39,11,12,40)        -62.9599         estimate D2E/DX2                !
 ! D99   D(39,11,12,41)       -179.999          estimate D2E/DX2                !
 ! D100  D(11,12,13,14)        180.0            estimate D2E/DX2                !
 ! D101  D(11,12,13,42)         58.5219         estimate D2E/DX2                !
 ! D102  D(11,12,13,43)        -58.522          estimate D2E/DX2                !
 ! D103  D(40,12,13,14)        -58.5202         estimate D2E/DX2                !
 ! D104  D(40,12,13,42)       -179.9983         estimate D2E/DX2                !
 ! D105  D(40,12,13,43)         62.9578         estimate D2E/DX2                !
 ! D106  D(41,12,13,14)         58.5202         estimate D2E/DX2                !
 ! D107  D(41,12,13,42)        -62.9578         estimate D2E/DX2                !
 ! D108  D(41,12,13,43)        179.9983         estimate D2E/DX2                !
 ! D109  D(12,13,14,15)       -180.0            estimate D2E/DX2                !
 ! D110  D(12,13,14,44)         58.5311         estimate D2E/DX2                !
 ! D111  D(12,13,14,45)        -58.5311         estimate D2E/DX2                !
 ! D112  D(42,13,14,15)        -58.519          estimate D2E/DX2                !
 ! D113  D(42,13,14,44)       -179.9879         estimate D2E/DX2                !
 ! D114  D(42,13,14,45)         62.9499         estimate D2E/DX2                !
 ! D115  D(43,13,14,15)         58.5191         estimate D2E/DX2                !
 ! D116  D(43,13,14,44)        -62.9498         estimate D2E/DX2                !
 ! D117  D(43,13,14,45)        179.988          estimate D2E/DX2                !
 ! D118  D(13,14,15,16)       -180.0            estimate D2E/DX2                !
 ! D119  D(13,14,15,46)         58.4692         estimate D2E/DX2                !
 ! D120  D(13,14,15,47)        -58.4691         estimate D2E/DX2                !
 ! D121  D(44,14,15,16)        -58.5025         estimate D2E/DX2                !
 ! D122  D(44,14,15,46)        179.9667         estimate D2E/DX2                !
 ! D123  D(44,14,15,47)         63.0284         estimate D2E/DX2                !
 ! D124  D(45,14,15,16)         58.5025         estimate D2E/DX2                !
 ! D125  D(45,14,15,46)        -63.0284         estimate D2E/DX2                !
 ! D126  D(45,14,15,47)       -179.9666         estimate D2E/DX2                !
 ! D127  D(14,15,16,48)        -59.9742         estimate D2E/DX2                !
 ! D128  D(14,15,16,49)       -179.9998         estimate D2E/DX2                !
 ! D129  D(14,15,16,50)         59.9745         estimate D2E/DX2                !
 ! D130  D(46,15,16,48)         61.479          estimate D2E/DX2                !
 ! D131  D(46,15,16,49)        -58.5466         estimate D2E/DX2                !
 ! D132  D(46,15,16,50)       -178.5723         estimate D2E/DX2                !
 ! D133  D(47,15,16,48)        178.5727         estimate D2E/DX2                !
 ! D134  D(47,15,16,49)         58.547          estimate D2E/DX2                !
 ! D135  D(47,15,16,50)        -61.4786         estimate D2E/DX2                !
 --------------------------------------------------------------------------------
 Trust Radius=3.00D-01 FncErr=1.00D-07 GrdErr=1.00D-06
 Number of steps in this run=    290 maximum allowed number of steps=    300.
 GradGradGradGradGradGradGradGradGradGradGradGradGradGradGradGradGradGrad

                          Input orientation:                          
 ---------------------------------------------------------------------
 Center     Atomic      Atomic             Coordinates (Angstroms)
 Number     Number       Type             X           Y           Z
 ---------------------------------------------------------------------
      1          6           0       -0.030178   -1.054327   -2.589916
      2          6           0        0.390955   -2.428556   -1.993938
      3          6           0        1.671629   -2.324128   -1.107820
      4          6           0        2.093766   -3.702734   -0.510183
      5          6           0        3.374453   -3.597816    0.375838
      6          6           0        3.796741   -4.976471    0.973593
      7          6           0        5.077466   -4.871366    1.859600
      8          6           0        5.499850   -6.249971    2.457413
      9          6           0        6.780579   -6.144814    3.343412
     10          6           0        7.202960   -7.523420    3.941224
     11          6           0        8.483684   -7.418323    4.827233
     12          6           0        8.905963   -8.796982    5.424984
     13          6           0       10.186649   -8.692076    6.311008
     14          6           0       10.608773  -10.070689    6.908640
     15          6           0       11.889446   -9.966278    7.794762
     16          6           0       12.310562  -11.340514    8.390733
     17          1           0       -0.934572   -1.160843   -3.208592
     18          1           0        0.772647   -0.641390   -3.219815
     19          1           0       -0.243691   -0.331652   -1.787438
     20          1           0        0.574681   -3.142885   -2.815508
     21          1           0       -0.438135   -2.834220   -1.388097
     22          1           0        1.488465   -1.610370   -0.285605
     23          1           0        2.501393   -1.919068   -1.713175
     24          1           0        2.276620   -4.416242   -1.332697
     25          1           0        1.263669   -4.107537    0.094904
     26          1           0        3.191549   -2.884279    1.198306
     27          1           0        4.204497   -3.192983   -0.229290
     28          1           0        3.979665   -5.690012    0.151133
     29          1           0        2.966710   -5.381305    1.578738
     30          1           0        4.894523   -4.157804    2.682038
     31          1           0        5.907473   -4.466510    1.254438
     32          1           0        5.682798   -6.963535    1.634979
     33          1           0        4.669847   -6.654829    3.062581
     34          1           0        6.597631   -5.431250    4.165847
     35          1           0        7.610583   -5.739957    2.738245
     36          1           0        7.385900   -8.236982    3.118786
     37          1           0        6.372951   -7.928275    4.546385
     38          1           0        8.300763   -6.704783    5.649694
     39          1           0        9.313718   -7.013492    4.222089
     40          1           0        9.088863   -9.510517    4.602515
     41          1           0        8.075915   -9.201810    6.030110
     42          1           0       10.003800   -7.978570    7.133524
     43          1           0       11.016751   -8.287279    5.705924
     44          1           0       10.791933  -10.784445    6.086423
     45          1           0        9.779003  -10.475744    7.513991
     46          1           0       11.705724   -9.251952    8.616336
     47          1           0       12.718541   -9.560618    7.188926
     48          1           0       11.507729  -11.753449    9.020624
     49          1           0       13.214952  -11.234011    9.009416
     50          1           0       12.524074  -12.063186    7.588252
 ---------------------------------------------------------------------
                    Distance matrix (angstroms):
                    1          2          3          4          5
     1  C    0.000000
     2  C    1.555971   0.000000
     3  C    2.589430   1.560845   0.000000
     4  C    3.981267   2.593188   1.560745   0.000000
     5  C    5.182330   3.985508   2.592901   1.560834   0.000000
     6  C    6.536598   5.186279   3.985386   2.593091   1.560874
     7  C    7.775346   6.540678   5.185916   3.985478   2.593016
     8  C    9.113257   7.779367   6.540521   5.186179   3.985498
     9  C   10.368406   9.117301   7.778976   6.540655   5.186076
    10  C   11.697146  10.372425   9.117078   7.779237   6.540627
    11  C   12.961495  11.701214  10.372066   9.117272   7.779166
    12  C   14.284324  12.965439  11.700895  10.372251   9.117170
    13  C   15.554588  14.288438  12.965159  11.701152  10.372258
    14  C   16.873192  15.558339  14.287945  12.965150  11.700896
    15  C   18.147777  16.877536  15.558348  14.288437  12.965448
    16  C   19.459552  18.147767  16.873193  15.554579  14.284326
    17  H    1.100924   2.199886   3.543834   4.786799   6.111847
    18  H    1.100826   2.200551   2.846103   4.296427   5.332783
    19  H    1.100826   2.200551   2.846102   4.296427   5.332782
    20  H    2.186051   1.104082   2.188574   2.817015   4.269704
    21  H    2.186051   1.104082   2.188574   2.817015   4.269705
    22  H    2.815192   2.189145   1.104100   2.189706   2.818582
    23  H    2.815192   2.189145   1.104100   2.189706   2.818582
    24  H    4.266659   2.818487   2.189411   1.104109   2.189555
    25  H    4.266659   2.818486   2.189411   1.104109   2.189555
    26  H    5.298950   4.270999   2.818181   2.189505   1.104102
    27  H    5.298950   4.271000   2.818181   2.189505   1.104102
    28  H    6.714295   5.302571   4.270968   2.818373   2.189534
    29  H    6.714295   5.302571   4.270967   2.818373   2.189534
    30  H    7.853518   6.718421   5.302116   4.271019   2.818290
    31  H    7.853518   6.718421   5.302117   4.271019   2.818290
    32  H    9.241567   7.857397   6.718372   5.302424   4.271061
    33  H    9.241567   7.857397   6.718372   5.302424   4.271060
    34  H   10.427158   9.245645   7.856925   6.718469   5.302313
    35  H   10.427159   9.245646   7.856925   6.718469   5.302313
    36  H   11.797373  10.431060   9.245482   7.857194   6.718432
    37  H   11.797372  10.431060   9.245481   7.857194   6.718431
    38  H   13.008589  11.801538  10.430702   9.245713   7.857183
    39  H   13.008590  11.801539  10.430703   9.245713   7.857184
    40  H   14.366458  13.012339  11.801164  10.430791   9.245502
    41  H   14.366456  13.012338  11.801163  10.430790   9.245501
    42  H   15.593946  14.370805  13.012208  11.801597  10.430991
    43  H   15.593947  14.370806  13.012209  11.801598  10.430992
    44  H   16.943202  15.597867  14.370596  13.012453  11.801585
    45  H   16.943201  15.597865  14.370594  13.012452  11.801583
    46  H   18.180003  16.945815  15.596057  14.369304  13.010962
    47  H   18.180005  16.945816  15.596059  14.369305  13.010963
    48  H   19.555028  18.216939  16.977819  15.629235  14.401279
    49  H   20.337255  19.054259  17.748037  16.462797  15.155381
    50  H   19.555033  18.216944  16.977823  15.629240  14.401283
                    6          7          8          9         10
     6  C    0.000000
     7  C    1.560868   0.000000
     8  C    2.593088   1.560878   0.000000
     9  C    3.985518   2.593060   1.560871   0.000000
    10  C    5.186146   3.985508   2.593058   1.560878   0.000000
    11  C    6.540689   5.186150   3.985518   2.593090   1.560868
    12  C    7.779160   6.540628   5.186072   3.985498   2.593014
    13  C    9.117272   7.779243   6.540654   5.186183   3.985478
    14  C   10.372059   9.117078   7.778971   6.540521   5.185913
    15  C   11.701213  10.372432   9.117300   7.779372   6.540677
    16  C   12.961488  11.697147  10.368400   9.113258   7.775342
    17  H    7.378008   8.694777   9.970187  11.282387  12.562710
    18  H    6.747055   7.888259   9.275427  10.462259  11.831811
    19  H    6.747054   7.888258   9.275426  10.462258  11.831810
    20  H    5.301037   6.717094   7.855888   9.244298  10.429602
    21  H    5.301037   6.717094   7.855888   9.244297  10.429602
    22  H    4.271342   5.302540   6.718725   7.857316   9.245848
    23  H    4.271342   5.302540   6.718725   7.857317   9.245849
    24  H    2.818439   4.271140   5.302519   6.718601   7.857330
    25  H    2.818439   4.271140   5.302519   6.718601   7.857329
    26  H    2.189525   2.818245   4.271005   5.302235   6.718381
    27  H    2.189525   2.818245   4.271005   5.302235   6.718381
    28  H    1.104103   2.189568   2.818412   4.271137   5.302434
    29  H    1.104103   2.189568   2.818412   4.271137   5.302434
    30  H    2.189549   1.104103   2.189529   2.818302   4.271042
    31  H    2.189549   1.104103   2.189529   2.818302   4.271042
    32  H    2.818345   2.189533   1.104103   2.189560   2.818356
    33  H    2.818345   2.189533   1.104103   2.189560   2.818356
    34  H    4.271100   2.818359   2.189560   1.104103   2.189533
    35  H    4.271100   2.818359   2.189560   1.104103   2.189533
    36  H    5.302343   4.271040   2.818299   2.189529   1.104103
    37  H    5.302343   4.271040   2.818299   2.189529   1.104103
    38  H    6.718571   5.302441   4.271139   2.818415   2.189568
    39  H    6.718572   5.302441   4.271139   2.818416   2.189568
    40  H    7.857048   6.718378   5.302229   4.271004   2.818242
    41  H    7.857047   6.718378   5.302229   4.271003   2.818242
    42  H    9.245806   7.857338   6.718604   5.302525   4.271141
    43  H    9.245807   7.857339   6.718604   5.302525   4.271142
    44  H   10.431025   9.245845   7.857309   6.718723   5.302536
    45  H   10.431024   9.245844   7.857307   6.718722   5.302535
    46  H   11.800138  10.429612   9.244300   7.855895   6.717096
    47  H   11.800139  10.429613   9.244301   7.855896   6.717096
    48  H   13.043829  11.831805  10.462247   9.275423   7.888250
    49  H   13.872057  12.562715  11.282385   9.970191   8.694775
    50  H   13.043833  11.831809  10.462251   9.275426   7.888254
                   11         12         13         14         15
    11  C    0.000000
    12  C    1.560874   0.000000
    13  C    2.593093   1.560834   0.000000
    14  C    3.985387   2.592899   1.560745   0.000000
    15  C    5.186282   3.985508   2.593189   1.560845   0.000000
    16  C    6.536599   5.182328   3.981267   2.589429   1.555971
    17  H   13.872060  15.155374  16.462801  17.748029  19.054262
    18  H   13.043845  14.401287  15.629254  16.977828  18.216961
    19  H   13.043843  14.401285  15.629253  16.977826  18.216959
    20  H   11.800134  13.010948  14.369299  15.596042  16.945808
    21  H   11.800134  13.010948  14.369299  15.596041  16.945808
    22  H   10.431036  11.801589  13.012467  14.370601  15.597883
    23  H   10.431037  11.801590  13.012468  14.370602  15.597884
    24  H    9.245803  10.430979  11.801591  13.012194  14.370798
    25  H    9.245802  10.430979  11.801591  13.012193  14.370797
    26  H    7.857057   9.245506  10.430803  11.801169  13.012353
    27  H    7.857057   9.245507  10.430804  11.801170  13.012354
    28  H    6.718568   7.857174   9.245708  10.430691  11.801532
    29  H    6.718568   7.857173   9.245707  10.430690  11.801531
    30  H    5.302350   6.718435   7.857204   9.245486  10.431072
    31  H    5.302350   6.718436   7.857204   9.245487  10.431073
    32  H    4.271098   5.302307   6.718466   7.856916   9.245641
    33  H    4.271098   5.302306   6.718465   7.856915   9.245639
    34  H    2.818348   4.271062   5.302430   6.718375   7.857405
    35  H    2.818348   4.271063   5.302430   6.718376   7.857406
    36  H    2.189548   2.818287   4.271018   5.302111   6.718418
    37  H    2.189548   2.818287   4.271017   5.302111   6.718417
    38  H    1.104103   2.189534   2.818375   4.270969   5.302576
    39  H    1.104103   2.189534   2.818376   4.270969   5.302577
    40  H    2.189525   1.104102   2.189505   2.818179   4.270998
    41  H    2.189525   1.104102   2.189504   2.818179   4.270998
    42  H    2.818442   2.189556   1.104109   2.189412   2.818488
    43  H    2.818442   2.189556   1.104109   2.189412   2.818489
    44  H    4.271341   2.818580   2.189706   1.104100   2.189145
    45  H    4.271340   2.818579   2.189706   1.104100   2.189145
    46  H    5.301041   4.269705   2.817017   2.188574   1.104082
    47  H    5.301042   4.269706   2.817016   2.188574   1.104082
    48  H    6.747051   5.332777   4.296425   2.846099   2.200551
    49  H    7.378011   6.111846   4.786801   3.543833   2.199886
    50  H    6.747054   5.332781   4.296427   2.846102   2.200551
                   16         17         18         19         20
    16  C    0.000000
    17  H   20.337247   0.000000
    18  H   19.555040   1.784531   0.000000
    19  H   19.555038   1.784531   1.783419   0.000000
    20  H   18.179985   2.522072   2.541678   3.103174   0.000000
    21  H   18.179984   2.522071   3.103174   2.541679   1.777237
    22  H   16.943210   3.823222   3.171893   2.625069   3.095805
    23  H   16.943211   3.823223   2.625070   3.171891   2.534775
    24  H   15.593930   4.942504   4.480251   4.821061   2.591672
    25  H   15.593929   4.942504   4.821062   4.480251   3.142571
    26  H   14.366465   6.278205   5.513750   5.218376   4.798497
    27  H   14.366466   6.278205   5.218378   5.513749   4.457196
    28  H   13.008576   7.480029   6.865627   7.092730   5.184855
    29  H   13.008575   7.480029   7.092730   6.865626   5.481033
    30  H   11.797379   8.812471   8.011673   7.811332   7.064992
    31  H   11.797380   8.812471   7.811334   8.011672   6.837772
    32  H   10.427148  10.045944   9.362058   9.529853   7.777986
    33  H   10.427147  10.045944   9.529854   9.362057   7.978474
    34  H    9.241572  11.373337  10.555624  10.404383   9.500098
    35  H    9.241573  11.373338  10.404385  10.555624   9.332356
    36  H    7.853511  12.622903  11.899832  12.032287  10.371035
    37  H    7.853510  12.622903  12.032288  11.899830  10.522231
    38  H    6.714297  13.946179  13.118897  12.997517  12.001629
    39  H    6.714298  13.946180  12.997519  13.118897  11.869293
    40  H    5.298946  15.205252  14.457168  14.566387  12.963992
    41  H    5.298946  15.205250  14.566387  14.457165  13.085261
    42  H    4.266660  16.525397  15.692038  15.590703  14.535315
    43  H    4.266661  16.525399  15.590706  15.692038  14.426241
    44  H    2.815190  17.791063  17.025678  17.118515  15.557315
    45  H    2.815190  17.791060  17.118515  17.025674  15.658509
    46  H    2.186051  19.106858  18.269330  18.182376  17.085311
    47  H    2.186051  19.106860  18.182379  18.269330  16.992626
    48  H    1.100826  20.409994  19.711626  19.630780  18.269301
    49  H    1.100924  21.235759  20.410015  20.410012  19.106847
    50  H    1.100826  20.409999  19.630787  19.711628  18.182354
                   21         22         23         24         25
    21  H    0.000000
    22  H    2.534775   0.000000
    23  H    3.095805   1.777435   0.000000
    24  H    3.142571   3.096854   2.535973   0.000000
    25  H    2.591671   2.535974   3.096854   1.777473   0.000000
    26  H    4.457196   2.593325   3.143989   3.096769   2.535859
    27  H    4.798497   3.143989   2.593325   2.535859   3.096769
    28  H    5.481034   4.800031   4.458805   2.593184   3.143887
    29  H    5.184855   4.458805   4.800031   3.143887   2.593184
    30  H    6.837771   5.186286   5.482418   4.799823   4.458575
    31  H    7.064992   5.482418   5.186287   4.458575   4.799824
    32  H    7.978474   7.066644   6.839453   5.186314   5.482451
    33  H    7.777985   6.839452   7.066644   5.482451   5.186314
    34  H    9.332355   7.779340   7.979817   7.066496   6.839295
    35  H    9.500098   7.979818   7.779341   6.839295   7.066496
    36  H   10.522231   9.501664   9.333932   7.779364   7.979843
    37  H   10.371034   9.333930   9.501663   7.979844   7.779363
    38  H   11.869292  10.372475  10.523668   9.501658   9.333921
    39  H   12.001630  10.523669  10.372476   9.333922   9.501659
    40  H   13.085261  12.003004  11.870669  10.372321  10.523518
    41  H   12.963991  11.870667  12.003003  10.523518  10.372319
    42  H   14.426239  12.965663  13.086931  12.003183  11.870846
    43  H   14.535316  13.086932  12.965665  11.870847  12.003184
    44  H   15.658510  14.536881  14.427809  12.965643  13.086910
    45  H   15.557312  14.427806  14.536880  13.086910  12.965641
    46  H   16.992624  15.557337  15.658534  14.535314  14.426238
    47  H   17.085312  15.658534  15.557339  14.426240  14.535314
    48  H   18.182348  17.025675  17.118515  15.692012  15.590678
    49  H   19.106846  17.791077  17.791079  16.525387  16.525385
    50  H   18.269305  17.118519  17.025681  15.590683  15.692016
                   26         27         28         29         30
    26  H    0.000000
    27  H    1.777468   0.000000
    28  H    3.096746   2.535827   0.000000
    29  H    2.535827   3.096746   1.777480   0.000000
    30  H    2.592961   3.143699   3.096790   2.535880   0.000000
    31  H    3.143700   2.592961   2.535880   3.096790   1.777472
    32  H    4.799722   4.458468   2.593130   3.143843   3.096746
    33  H    4.458467   4.799722   3.143844   2.593130   2.535828
    34  H    5.186015   5.482167   4.799858   4.458611   2.593054
    35  H    5.482168   5.186016   4.458611   4.799858   3.143779
    36  H    7.066275   6.839068   5.186180   5.482324   4.799729
    37  H    6.839067   7.066275   5.482324   5.186179   4.458473
    38  H    7.779150   7.979636   7.066529   6.839327   5.186189
    39  H    7.979637   7.779151   6.839328   7.066529   5.482334
    40  H    9.501262   9.333520   7.779137   7.979622   7.066276
    41  H    9.333518   9.501261   7.979622   7.779135   6.839067
    42  H   10.372337  10.523535   9.501658   9.333920   7.779376
    43  H   10.523536  10.372339   9.333921   9.501658   7.979857
    44  H   12.003005  11.870671  10.372459  10.523652   9.501665
    45  H   11.870668  12.003004  10.523651  10.372457   9.333931
    46  H   12.964011  13.085282  12.001628  11.869290  10.371050
    47  H   13.085282  12.964013  11.869292  12.001628  10.522248
    48  H   14.457167  14.566389  13.118876  12.997495  11.899831
    49  H   15.205265  15.205266  13.946170  13.946168  12.622914
    50  H   14.566392  14.457172  12.997501  13.118879  12.032292
                   31         32         33         34         35
    31  H    0.000000
    32  H    2.535828   0.000000
    33  H    3.096746   1.777475   0.000000
    34  H    3.143778   3.096791   2.535882   0.000000
    35  H    2.593054   2.535881   3.096791   1.777475   0.000000
    36  H    4.458474   2.593049   3.143774   3.096746   2.535828
    37  H    4.799729   3.143775   2.593049   2.535828   3.096746
    38  H    5.482333   4.799858   4.458611   2.593135   3.143847
    39  H    5.186190   4.458611   4.799858   3.143848   2.593135
    40  H    6.839069   5.186006   5.482158   4.799723   4.458468
    41  H    7.066275   5.482159   5.186005   4.458467   4.799723
    42  H    7.979857   7.066495   6.839294   5.186322   5.482459
    43  H    7.779378   6.839294   7.066495   5.482459   5.186323
    44  H    9.333933   7.779329   7.979805   7.066645   6.839454
    45  H    9.501664   7.979805   7.779327   6.839453   7.066645
    46  H   10.522248   9.500096   9.332353   7.777996   7.978486
    47  H   10.371052   9.332355   9.500096   7.978485   7.777998
    48  H   12.032289  10.555607  10.404367   9.362058   9.529854
    49  H   12.622916  11.373330  11.373328  10.045952  10.045953
    50  H   11.899836  10.404372  10.555611   9.529856   9.362061
                   36         37         38         39         40
    36  H    0.000000
    37  H    1.777472   0.000000
    38  H    3.096790   2.535880   0.000000
    39  H    2.535880   3.096790   1.777480   0.000000
    40  H    2.592957   3.143696   3.096746   2.535827   0.000000
    41  H    3.143696   2.592956   2.535827   3.096746   1.777468
    42  H    4.799823   4.458575   2.593188   3.143890   3.096769
    43  H    4.458575   4.799823   3.143890   2.593188   2.535859
    44  H    5.186280   5.482411   4.800031   4.458806   2.593322
    45  H    5.482411   5.186278   4.458805   4.800031   3.143986
    46  H    7.064991   6.837769   5.184862   5.481040   4.798497
    47  H    6.837771   7.064990   5.481039   5.184863   4.457196
    48  H    8.011661   7.811320   6.865627   7.092730   5.513742
    49  H    8.812467   8.812465   7.480033   7.480035   6.278203
    50  H    7.811325   8.011665   7.092732   6.865629   5.218374
                   41         42         43         44         45
    41  H    0.000000
    42  H    2.535859   0.000000
    43  H    3.096769   1.777473   0.000000
    44  H    3.143987   3.096854   2.535973   0.000000
    45  H    2.593321   2.535974   3.096854   1.777435   0.000000
    46  H    4.457195   2.591674   3.142574   3.095805   2.534774
    47  H    4.798497   3.142573   2.591674   2.534775   3.095805
    48  H    5.218369   4.480252   4.821061   3.171888   2.625065
    49  H    6.278201   4.942506   4.942508   3.823222   3.823221
    50  H    5.513746   4.821062   4.480252   2.625068   3.171893
                   46         47         48         49         50
    46  H    0.000000
    47  H    1.777237   0.000000
    48  H    2.541680   3.103174   0.000000
    49  H    2.522071   2.522073   1.784531   0.000000
    50  H    3.103174   2.541677   1.783419   1.784531   0.000000
 Stoichiometry    C16H34
 Framework group  C1[X(C16H34)]
 Deg. of freedom   144
 Full point group                 C1      NOp   1
 Largest Abelian subgroup         C1      NOp   1
 Largest concise Abelian subgroup C1      NOp   1
                         Standard orientation:                         
 ---------------------------------------------------------------------
 Center     Atomic      Atomic             Coordinates (Angstroms)
 Number     Number       Type             X           Y           Z
 ---------------------------------------------------------------------
      1          6           0        9.723809    0.340741   -0.000002
      2          6           0        8.423143   -0.513257   -0.000001
      3          6           0        7.134517    0.367471   -0.000001
      4          6           0        5.830064   -0.489457    0.000000
      5          6           0        4.541729    0.391677    0.000000
      6          6           0        3.237086   -0.465197    0.000001
      7          6           0        1.948829    0.416111    0.000001
      8          6           0        0.644114   -0.440662    0.000002
      9          6           0       -0.644115    0.440691    0.000002
     10          6           0       -1.948827   -0.416085    0.000002
     11          6           0       -3.237089    0.465218    0.000002
     12          6           0       -4.541727   -0.391665    0.000001
     13          6           0       -5.830068    0.489458    0.000001
     14          6           0       -7.134513   -0.367483   -0.000001
     15          6           0       -8.423149    0.513230   -0.000002
     16          6           0       -9.723804   -0.340784   -0.000003
     17          1           0       10.613416   -0.307822   -0.000004
     18          1           0        9.765861    0.984871    0.891707
     19          1           0        9.765859    0.984872   -0.891712
     20          1           0        8.415577   -1.168464    0.888618
     21          1           0        8.415576   -1.168465   -0.888620
     22          1           0        7.141063    1.022585   -0.888719
     23          1           0        7.141064    1.022586    0.888716
     24          1           0        5.824016   -1.144565    0.888737
     25          1           0        5.824015   -1.144567   -0.888736
     26          1           0        4.547851    1.046776   -0.888734
     27          1           0        4.547852    1.046778    0.888734
     28          1           0        3.230946   -1.120289    0.888741
     29          1           0        3.230945   -1.120290   -0.888738
     30          1           0        1.955005    1.071208   -0.888735
     31          1           0        1.955005    1.071208    0.888737
     32          1           0        0.637931   -1.095758    0.888739
     33          1           0        0.637931   -1.095758   -0.888736
     34          1           0       -0.637933    1.095787   -0.888735
     35          1           0       -0.637932    1.095787    0.888740
     36          1           0       -1.955002   -1.071182    0.888738
     37          1           0       -1.955002   -1.071182   -0.888735
     38          1           0       -3.230951    1.120311   -0.888737
     39          1           0       -3.230952    1.120310    0.888742
     40          1           0       -4.547844   -1.046766    0.888734
     41          1           0       -4.547843   -1.046765   -0.888733
     42          1           0       -5.824025    1.144568   -0.888736
     43          1           0       -5.824026    1.144566    0.888738
     44          1           0       -7.141054   -1.022598    0.888716
     45          1           0       -7.141052   -1.022598   -0.888718
     46          1           0       -8.415590    1.168438   -0.888621
     47          1           0       -8.415591    1.168438    0.888617
     48          1           0       -9.765845   -0.984917   -0.891711
     49          1           0      -10.613419    0.307768   -0.000007
     50          1           0       -9.765850   -0.984912    0.891708
 ---------------------------------------------------------------------
 Rotational constants (GHZ):      5.0880746      0.0611511      0.0607955
 Standard basis: STO-3G (5D, 7F)
 There are   114 symmetry adapted cartesian basis functions of A   symmetry.
 There are   114 symmetry adapted basis functions of A   symmetry.
   114 basis functions,   342 primitive gaussians,   114 cartesian basis functions
    65 alpha electrons       65 beta electrons
       nuclear repulsion energy       989.1307643402 Hartrees.
 NAtoms=   50 NActive=   50 NUniq=   50 SFac= 1.00D+00 NAtFMM=   60 NAOKFM=F Big=F
 Integral buffers will be    131072 words long.
 Raffenetti 2 integral format.
 Two-electron integral symmetry is turned on.
 One-electron integrals computed using PRISM.
 NBasis=   114 RedAO= T EigKep=  2.09D-01  NBF=   114
 NBsUse=   114 1.00D-06 EigRej= -1.00D+00 NBFU=   114
 ExpMin= 1.69D-01 ExpMax= 7.16D+01 ExpMxC= 7.16D+01 IAcc=1 IRadAn=         1 AccDes= 0.00D+00
 Harris functional with IExCor=  402 and IRadAn=       1 diagonalized for initial guess.
 HarFok:  IExCor=  402 AccDes= 0.00D+00 IRadAn=         1 IDoV= 1 UseB2=F ITyADJ=14
 ICtDFT=  3500011 ScaDFX=  1.000000  1.000000  1.000000  1.000000
 FoFCou: FMM=F IPFlag=           0 FMFlag=      100000 FMFlg1=           0
         NFxFlg=           0 DoJE=T BraDBF=F KetDBF=T FulRan=T
         wScrn=  0.000000 ICntrl=     500 IOpCl=  0 I1Cent=   200000004 NGrid=           0
         NMat0=    1 NMatS0=      1 NMatT0=    0 NMatD0=    1 NMtDS0=    0 NMtDT0=    0
 Petite list used in FoFCou.
 Keep R1 ints in memory in canonical form, NReq=22487574.
 Requested convergence on RMS density matrix=1.00D-08 within 128 cycles.
 Requested convergence on MAX density matrix=1.00D-06.
 Requested convergence on             energy=1.00D-06.
 No special actions if energy rises.
 Integral accuracy reduced to 1.0D-05 until final iterations.
 Initial convergence to 1.0D-05 achieved.  Increase integral accuracy.
 SCF Done:  E(RB3LYP) =  -622.760238561     A.U. after   10 cycles
            NFock= 10  Conv=0.28D-08     -V/T= 2.0184

 **********************************************************************

            Population analysis using the SCF density.

 **********************************************************************

 Orbital symmetries:
       Occupied  (A) (A) (A) (A) (A) (A) (A) (A) (A) (A) (A) (A)
                 (A) (A) (A) (A) (A) (A) (A) (A) (A) (A) (A) (A)
                 (A) (A) (A) (A) (A) (A) (A) (A) (A) (A) (A) (A)
                 (A) (A) (A) (A) (A) (A) (A) (A) (A) (A) (A) (A)
                 (A) (A) (A) (A) (A) (A) (A) (A) (A) (A) (A) (A)
                 (A) (A) (A) (A) (A)
       Virtual   (A) (A) (A) (A) (A) (A) (A) (A) (A) (A) (A) (A)
                 (A) (A) (A) (A) (A) (A) (A) (A) (A) (A) (A) (A)
                 (A) (A) (A) (A) (A) (A) (A) (A) (A) (A) (A) (A)
                 (A) (A) (A) (A) (A) (A) (A) (A) (A) (A) (A) (A)
                 (A)
 The electronic state is 1-A.
 Alpha  occ. eigenvalues --  -10.00710 -10.00710 -10.00454 -10.00450 -10.00436
 Alpha  occ. eigenvalues --  -10.00419 -10.00399 -10.00377 -10.00354 -10.00330
 Alpha  occ. eigenvalues --  -10.00307 -10.00285 -10.00266 -10.00249  -9.99959
 Alpha  occ. eigenvalues --   -9.99959  -0.76575  -0.75952  -0.74897  -0.73423
 Alpha  occ. eigenvalues --   -0.71550  -0.69305  -0.66734  -0.63902  -0.60923
 Alpha  occ. eigenvalues --   -0.58005  -0.55527  -0.54297  -0.53960  -0.53955
 Alpha  occ. eigenvalues --   -0.53406  -0.53293  -0.44760  -0.44172  -0.43192
 Alpha  occ. eigenvalues --   -0.41860  -0.40232  -0.38874  -0.38530  -0.38388
 Alpha  occ. eigenvalues --   -0.37703  -0.36816  -0.36432  -0.35632  -0.35089
 Alpha  occ. eigenvalues --   -0.34486  -0.33282  -0.32682  -0.32416  -0.31571
 Alpha  occ. eigenvalues --   -0.31136  -0.30162  -0.29927  -0.29085  -0.29038
 Alpha  occ. eigenvalues --   -0.28840  -0.28581  -0.28341  -0.28257  -0.28254
 Alpha  occ. eigenvalues --   -0.28249  -0.27779  -0.27515  -0.25616  -0.23334
 Alpha virt. eigenvalues --    0.30280   0.32815   0.35481   0.36176   0.36364
 Alpha virt. eigenvalues --    0.37296   0.38280   0.38313   0.38510   0.38756
 Alpha virt. eigenvalues --    0.39069   0.40100   0.40247   0.40450   0.41600
 Alpha virt. eigenvalues --    0.42265   0.43400   0.43996   0.44100   0.45514
 Alpha virt. eigenvalues --    0.45877   0.46999   0.47266   0.47307   0.47555
 Alpha virt. eigenvalues --    0.47663   0.48137   0.48202   0.48618   0.49041
 Alpha virt. eigenvalues --    0.49139   0.49352   0.49642   0.50019   0.50028
 Alpha virt. eigenvalues --    0.50652   0.50744   0.50745   0.51036   0.51307
 Alpha virt. eigenvalues --    0.51891   0.52105   0.52195   0.52682   0.52777
 Alpha virt. eigenvalues --    0.53475   0.54693   0.55664   0.56301
          Condensed to atoms (all electrons):
               1          2          3          4          5          6
     1  C    4.785620   0.359429  -0.019945   0.000600  -0.000004   0.000000
     2  C    0.359429   4.776193   0.358314  -0.019058   0.000585  -0.000003
     3  C   -0.019945   0.358314   4.788055   0.358166  -0.018995   0.000584
     4  C    0.000600  -0.019058   0.358166   4.788189   0.358063  -0.018991
     5  C   -0.000004   0.000585  -0.018995   0.358063   4.788147   0.358022
     6  C    0.000000  -0.000003   0.000584  -0.018991   0.358022   4.788209
     7  C    0.000000   0.000000  -0.000003   0.000584  -0.018991   0.358024
     8  C    0.000000   0.000000   0.000000  -0.000003   0.000584  -0.018987
     9  C    0.000000   0.000000   0.000000   0.000000  -0.000003   0.000584
    10  C    0.000000   0.000000   0.000000   0.000000   0.000000  -0.000003
    11  C    0.000000   0.000000   0.000000   0.000000   0.000000   0.000000
    12  C    0.000000   0.000000   0.000000   0.000000   0.000000   0.000000
    13  C    0.000000   0.000000   0.000000   0.000000   0.000000   0.000000
    14  C    0.000000   0.000000   0.000000   0.000000   0.000000   0.000000
    15  C    0.000000   0.000000   0.000000   0.000000   0.000000   0.000000
    16  C    0.000000   0.000000   0.000000   0.000000   0.000000   0.000000
    17  H    0.379545  -0.018568   0.001146  -0.000013   0.000000   0.000000
    18  H    0.379493  -0.019570  -0.001954   0.000006   0.000000   0.000000
    19  H    0.379493  -0.019570  -0.001954   0.000006   0.000000   0.000000
    20  H   -0.021187   0.378131  -0.021337  -0.001942   0.000004   0.000000
    21  H   -0.021187   0.378131  -0.021337  -0.001942   0.000004   0.000000
    22  H   -0.001921  -0.021238   0.377532  -0.021209  -0.001945   0.000005
    23  H   -0.001921  -0.021238   0.377532  -0.021209  -0.001945   0.000005
    24  H    0.000005  -0.001947  -0.021230   0.377509  -0.021217  -0.001945
    25  H    0.000005  -0.001947  -0.021230   0.377509  -0.021217  -0.001945
    26  H    0.000000   0.000005  -0.001946  -0.021228   0.377523  -0.021225
    27  H    0.000000   0.000005  -0.001946  -0.021228   0.377523  -0.021225
    28  H    0.000000   0.000000   0.000005  -0.001945  -0.021227   0.377521
    29  H    0.000000   0.000000   0.000005  -0.001945  -0.021227   0.377521
    30  H    0.000000   0.000000   0.000000   0.000005  -0.001946  -0.021226
    31  H    0.000000   0.000000   0.000000   0.000005  -0.001946  -0.021226
    32  H    0.000000   0.000000   0.000000   0.000000   0.000005  -0.001945
    33  H    0.000000   0.000000   0.000000   0.000000   0.000005  -0.001945
    34  H    0.000000   0.000000   0.000000   0.000000   0.000000   0.000005
    35  H    0.000000   0.000000   0.000000   0.000000   0.000000   0.000005
    36  H    0.000000   0.000000   0.000000   0.000000   0.000000   0.000000
    37  H    0.000000   0.000000   0.000000   0.000000   0.000000   0.000000
    38  H    0.000000   0.000000   0.000000   0.000000   0.000000   0.000000
    39  H    0.000000   0.000000   0.000000   0.000000   0.000000   0.000000
    40  H    0.000000   0.000000   0.000000   0.000000   0.000000   0.000000
    41  H    0.000000   0.000000   0.000000   0.000000   0.000000   0.000000
    42  H    0.000000   0.000000   0.000000   0.000000   0.000000   0.000000
    43  H    0.000000   0.000000   0.000000   0.000000   0.000000   0.000000
    44  H    0.000000   0.000000   0.000000   0.000000   0.000000   0.000000
    45  H    0.000000   0.000000   0.000000   0.000000   0.000000   0.000000
    46  H    0.000000   0.000000   0.000000   0.000000   0.000000   0.000000
    47  H    0.000000   0.000000   0.000000   0.000000   0.000000   0.000000
    48  H    0.000000   0.000000   0.000000   0.000000   0.000000   0.000000
    49  H    0.000000   0.000000   0.000000   0.000000   0.000000   0.000000
    50  H    0.000000   0.000000   0.000000   0.000000   0.000000   0.000000
               7          8          9         10         11         12
     1  C    0.000000   0.000000   0.000000   0.000000   0.000000   0.000000
     2  C    0.000000   0.000000   0.000000   0.000000   0.000000   0.000000
     3  C   -0.000003   0.000000   0.000000   0.000000   0.000000   0.000000
     4  C    0.000584  -0.000003   0.000000   0.000000   0.000000   0.000000
     5  C   -0.018991   0.000584  -0.000003   0.000000   0.000000   0.000000
     6  C    0.358024  -0.018987   0.000584  -0.000003   0.000000   0.000000
     7  C    4.788217   0.358014  -0.018989   0.000584  -0.000003   0.000000
     8  C    0.358014   4.788218   0.358022  -0.018989   0.000584  -0.000003
     9  C   -0.018989   0.358022   4.788218   0.358014  -0.018987   0.000584
    10  C    0.000584  -0.018989   0.358014   4.788217   0.358024  -0.018991
    11  C   -0.000003   0.000584  -0.018987   0.358024   4.788209   0.358022
    12  C    0.000000  -0.000003   0.000584  -0.018991   0.358022   4.788147
    13  C    0.000000   0.000000  -0.000003   0.000584  -0.018991   0.358063
    14  C    0.000000   0.000000   0.000000  -0.000003   0.000584  -0.018995
    15  C    0.000000   0.000000   0.000000   0.000000  -0.000003   0.000585
    16  C    0.000000   0.000000   0.000000   0.000000   0.000000  -0.000004
    17  H    0.000000   0.000000   0.000000   0.000000   0.000000   0.000000
    18  H    0.000000   0.000000   0.000000   0.000000   0.000000   0.000000
    19  H    0.000000   0.000000   0.000000   0.000000   0.000000   0.000000
    20  H    0.000000   0.000000   0.000000   0.000000   0.000000   0.000000
    21  H    0.000000   0.000000   0.000000   0.000000   0.000000   0.000000
    22  H    0.000000   0.000000   0.000000   0.000000   0.000000   0.000000
    23  H    0.000000   0.000000   0.000000   0.000000   0.000000   0.000000
    24  H    0.000005   0.000000   0.000000   0.000000   0.000000   0.000000
    25  H    0.000005   0.000000   0.000000   0.000000   0.000000   0.000000
    26  H   -0.001946   0.000005   0.000000   0.000000   0.000000   0.000000
    27  H   -0.001946   0.000005   0.000000   0.000000   0.000000   0.000000
    28  H   -0.021223  -0.001945   0.000005   0.000000   0.000000   0.000000
    29  H   -0.021223  -0.001945   0.000005   0.000000   0.000000   0.000000
    30  H    0.377521  -0.021226  -0.001945   0.000005   0.000000   0.000000
    31  H    0.377521  -0.021226  -0.001945   0.000005   0.000000   0.000000
    32  H   -0.021227   0.377521  -0.021225  -0.001945   0.000005   0.000000
    33  H   -0.021227   0.377521  -0.021225  -0.001945   0.000005   0.000000
    34  H   -0.001945  -0.021225   0.377521  -0.021227  -0.001945   0.000005
    35  H   -0.001945  -0.021225   0.377521  -0.021227  -0.001945   0.000005
    36  H    0.000005  -0.001945  -0.021226   0.377521  -0.021226  -0.001946
    37  H    0.000005  -0.001945  -0.021226   0.377521  -0.021226  -0.001946
    38  H    0.000000   0.000005  -0.001945  -0.021223   0.377521  -0.021227
    39  H    0.000000   0.000005  -0.001945  -0.021223   0.377521  -0.021227
    40  H    0.000000   0.000000   0.000005  -0.001946  -0.021225   0.377523
    41  H    0.000000   0.000000   0.000005  -0.001946  -0.021225   0.377523
    42  H    0.000000   0.000000   0.000000   0.000005  -0.001945  -0.021217
    43  H    0.000000   0.000000   0.000000   0.000005  -0.001945  -0.021217
    44  H    0.000000   0.000000   0.000000   0.000000   0.000005  -0.001945
    45  H    0.000000   0.000000   0.000000   0.000000   0.000005  -0.001945
    46  H    0.000000   0.000000   0.000000   0.000000   0.000000   0.000004
    47  H    0.000000   0.000000   0.000000   0.000000   0.000000   0.000004
    48  H    0.000000   0.000000   0.000000   0.000000   0.000000   0.000000
    49  H    0.000000   0.000000   0.000000   0.000000   0.000000   0.000000
    50  H    0.000000   0.000000   0.000000   0.000000   0.000000   0.000000
              13         14         15         16         17         18
     1  C    0.000000   0.000000   0.000000   0.000000   0.379545   0.379493
     2  C    0.000000   0.000000   0.000000   0.000000  -0.018568  -0.019570
     3  C    0.000000   0.000000   0.000000   0.000000   0.001146  -0.001954
     4  C    0.000000   0.000000   0.000000   0.000000  -0.000013   0.000006
     5  C    0.000000   0.000000   0.000000   0.000000   0.000000   0.000000
     6  C    0.000000   0.000000   0.000000   0.000000   0.000000   0.000000
     7  C    0.000000   0.000000   0.000000   0.000000   0.000000   0.000000
     8  C    0.000000   0.000000   0.000000   0.000000   0.000000   0.000000
     9  C   -0.000003   0.000000   0.000000   0.000000   0.000000   0.000000
    10  C    0.000584  -0.000003   0.000000   0.000000   0.000000   0.000000
    11  C   -0.018991   0.000584  -0.000003   0.000000   0.000000   0.000000
    12  C    0.358063  -0.018995   0.000585  -0.000004   0.000000   0.000000
    13  C    4.788189   0.358166  -0.019058   0.000600   0.000000   0.000000
    14  C    0.358166   4.788055   0.358314  -0.019945   0.000000   0.000000
    15  C   -0.019058   0.358314   4.776193   0.359429   0.000000   0.000000
    16  C    0.000600  -0.019945   0.359429   4.785620   0.000000   0.000000
    17  H    0.000000   0.000000   0.000000   0.000000   0.612462  -0.020909
    18  H    0.000000   0.000000   0.000000   0.000000  -0.020909   0.613509
    19  H    0.000000   0.000000   0.000000   0.000000  -0.020909  -0.021156
    20  H    0.000000   0.000000   0.000000   0.000000  -0.002051  -0.002171
    21  H    0.000000   0.000000   0.000000   0.000000  -0.002051   0.001807
    22  H    0.000000   0.000000   0.000000   0.000000   0.000006  -0.000012
    23  H    0.000000   0.000000   0.000000   0.000000   0.000006   0.000534
    24  H    0.000000   0.000000   0.000000   0.000000   0.000000   0.000002
    25  H    0.000000   0.000000   0.000000   0.000000   0.000000   0.000000
    26  H    0.000000   0.000000   0.000000   0.000000   0.000000   0.000000
    27  H    0.000000   0.000000   0.000000   0.000000   0.000000   0.000000
    28  H    0.000000   0.000000   0.000000   0.000000   0.000000   0.000000
    29  H    0.000000   0.000000   0.000000   0.000000   0.000000   0.000000
    30  H    0.000000   0.000000   0.000000   0.000000   0.000000   0.000000
    31  H    0.000000   0.000000   0.000000   0.000000   0.000000   0.000000
    32  H    0.000000   0.000000   0.000000   0.000000   0.000000   0.000000
    33  H    0.000000   0.000000   0.000000   0.000000   0.000000   0.000000
    34  H    0.000000   0.000000   0.000000   0.000000   0.000000   0.000000
    35  H    0.000000   0.000000   0.000000   0.000000   0.000000   0.000000
    36  H    0.000005   0.000000   0.000000   0.000000   0.000000   0.000000
    37  H    0.000005   0.000000   0.000000   0.000000   0.000000   0.000000
    38  H   -0.001945   0.000005   0.000000   0.000000   0.000000   0.000000
    39  H   -0.001945   0.000005   0.000000   0.000000   0.000000   0.000000
    40  H   -0.021228  -0.001946   0.000005   0.000000   0.000000   0.000000
    41  H   -0.021228  -0.001946   0.000005   0.000000   0.000000   0.000000
    42  H    0.377509  -0.021229  -0.001947   0.000005   0.000000   0.000000
    43  H    0.377509  -0.021229  -0.001947   0.000005   0.000000   0.000000
    44  H   -0.021209   0.377532  -0.021238  -0.001921   0.000000   0.000000
    45  H   -0.021209   0.377532  -0.021238  -0.001921   0.000000   0.000000
    46  H   -0.001942  -0.021337   0.378131  -0.021187   0.000000   0.000000
    47  H   -0.001942  -0.021337   0.378131  -0.021187   0.000000   0.000000
    48  H    0.000006  -0.001954  -0.019570   0.379493   0.000000   0.000000
    49  H   -0.000013   0.001146  -0.018568   0.379545   0.000000   0.000000
    50  H    0.000006  -0.001954  -0.019570   0.379493   0.000000   0.000000
              19         20         21         22         23         24
     1  C    0.379493  -0.021187  -0.021187  -0.001921  -0.001921   0.000005
     2  C   -0.019570   0.378131   0.378131  -0.021238  -0.021238  -0.001947
     3  C   -0.001954  -0.021337  -0.021337   0.377532   0.377532  -0.021230
     4  C    0.000006  -0.001942  -0.001942  -0.021209  -0.021209   0.377509
     5  C    0.000000   0.000004   0.000004  -0.001945  -0.001945  -0.021217
     6  C    0.000000   0.000000   0.000000   0.000005   0.000005  -0.001945
     7  C    0.000000   0.000000   0.000000   0.000000   0.000000   0.000005
     8  C    0.000000   0.000000   0.000000   0.000000   0.000000   0.000000
     9  C    0.000000   0.000000   0.000000   0.000000   0.000000   0.000000
    10  C    0.000000   0.000000   0.000000   0.000000   0.000000   0.000000
    11  C    0.000000   0.000000   0.000000   0.000000   0.000000   0.000000
    12  C    0.000000   0.000000   0.000000   0.000000   0.000000   0.000000
    13  C    0.000000   0.000000   0.000000   0.000000   0.000000   0.000000
    14  C    0.000000   0.000000   0.000000   0.000000   0.000000   0.000000
    15  C    0.000000   0.000000   0.000000   0.000000   0.000000   0.000000
    16  C    0.000000   0.000000   0.000000   0.000000   0.000000   0.000000
    17  H   -0.020909  -0.002051  -0.002051   0.000006   0.000006   0.000000
    18  H   -0.021156  -0.002171   0.001807  -0.000012   0.000534   0.000002
    19  H    0.613509   0.001807  -0.002171   0.000534  -0.000012   0.000000
    20  H    0.001807   0.625070  -0.022910   0.001817  -0.002204   0.000541
    21  H   -0.002171  -0.022910   0.625070  -0.002204   0.001817  -0.000002
    22  H    0.000534   0.001817  -0.002204   0.626464  -0.022995   0.001812
    23  H   -0.000012  -0.002204   0.001817  -0.022995   0.626464  -0.002193
    24  H    0.000000   0.000541  -0.000002   0.001812  -0.002193   0.626609
    25  H    0.000002  -0.000002   0.000541  -0.002193   0.001812  -0.023013
    26  H    0.000000   0.000000   0.000002   0.000533  -0.000001   0.001812
    27  H    0.000000   0.000002   0.000000  -0.000001   0.000533  -0.002195
    28  H    0.000000   0.000000   0.000000   0.000000   0.000002   0.000534
    29  H    0.000000   0.000000   0.000000   0.000002   0.000000  -0.000001
    30  H    0.000000   0.000000   0.000000   0.000000   0.000000   0.000000
    31  H    0.000000   0.000000   0.000000   0.000000   0.000000   0.000002
    32  H    0.000000   0.000000   0.000000   0.000000   0.000000   0.000000
    33  H    0.000000   0.000000   0.000000   0.000000   0.000000   0.000000
    34  H    0.000000   0.000000   0.000000   0.000000   0.000000   0.000000
    35  H    0.000000   0.000000   0.000000   0.000000   0.000000   0.000000
    36  H    0.000000   0.000000   0.000000   0.000000   0.000000   0.000000
    37  H    0.000000   0.000000   0.000000   0.000000   0.000000   0.000000
    38  H    0.000000   0.000000   0.000000   0.000000   0.000000   0.000000
    39  H    0.000000   0.000000   0.000000   0.000000   0.000000   0.000000
    40  H    0.000000   0.000000   0.000000   0.000000   0.000000   0.000000
    41  H    0.000000   0.000000   0.000000   0.000000   0.000000   0.000000
    42  H    0.000000   0.000000   0.000000   0.000000   0.000000   0.000000
    43  H    0.000000   0.000000   0.000000   0.000000   0.000000   0.000000
    44  H    0.000000   0.000000   0.000000   0.000000   0.000000   0.000000
    45  H    0.000000   0.000000   0.000000   0.000000   0.000000   0.000000
    46  H    0.000000   0.000000   0.000000   0.000000   0.000000   0.000000
    47  H    0.000000   0.000000   0.000000   0.000000   0.000000   0.000000
    48  H    0.000000   0.000000   0.000000   0.000000   0.000000   0.000000
    49  H    0.000000   0.000000   0.000000   0.000000   0.000000   0.000000
    50  H    0.000000   0.000000   0.000000   0.000000   0.000000   0.000000
              25         26         27         28         29         30
     1  C    0.000005   0.000000   0.000000   0.000000   0.000000   0.000000
     2  C   -0.001947   0.000005   0.000005   0.000000   0.000000   0.000000
     3  C   -0.021230  -0.001946  -0.001946   0.000005   0.000005   0.000000
     4  C    0.377509  -0.021228  -0.021228  -0.001945  -0.001945   0.000005
     5  C   -0.021217   0.377523   0.377523  -0.021227  -0.021227  -0.001946
     6  C   -0.001945  -0.021225  -0.021225   0.377521   0.377521  -0.021226
     7  C    0.000005  -0.001946  -0.001946  -0.021223  -0.021223   0.377521
     8  C    0.000000   0.000005   0.000005  -0.001945  -0.001945  -0.021226
     9  C    0.000000   0.000000   0.000000   0.000005   0.000005  -0.001945
    10  C    0.000000   0.000000   0.000000   0.000000   0.000000   0.000005
    11  C    0.000000   0.000000   0.000000   0.000000   0.000000   0.000000
    12  C    0.000000   0.000000   0.000000   0.000000   0.000000   0.000000
    13  C    0.000000   0.000000   0.000000   0.000000   0.000000   0.000000
    14  C    0.000000   0.000000   0.000000   0.000000   0.000000   0.000000
    15  C    0.000000   0.000000   0.000000   0.000000   0.000000   0.000000
    16  C    0.000000   0.000000   0.000000   0.000000   0.000000   0.000000
    17  H    0.000000   0.000000   0.000000   0.000000   0.000000   0.000000
    18  H    0.000000   0.000000   0.000000   0.000000   0.000000   0.000000
    19  H    0.000002   0.000000   0.000000   0.000000   0.000000   0.000000
    20  H   -0.000002   0.000000   0.000002   0.000000   0.000000   0.000000
    21  H    0.000541   0.000002   0.000000   0.000000   0.000000   0.000000
    22  H   -0.002193   0.000533  -0.000001   0.000000   0.000002   0.000000
    23  H    0.001812  -0.000001   0.000533   0.000002   0.000000   0.000000
    24  H   -0.023013   0.001812  -0.002195   0.000534  -0.000001   0.000000
    25  H    0.626609  -0.002195   0.001812  -0.000001   0.000534   0.000002
    26  H   -0.002195   0.626575  -0.023008   0.001812  -0.002195   0.000534
    27  H    0.001812  -0.023008   0.626575  -0.002195   0.001812  -0.000001
    28  H   -0.000001   0.001812  -0.002195   0.626594  -0.023010   0.001812
    29  H    0.000534  -0.002195   0.001812  -0.023010   0.626594  -0.002194
    30  H    0.000002   0.000534  -0.000001   0.001812  -0.002194   0.626599
    31  H    0.000000  -0.000001   0.000534  -0.002194   0.001812  -0.023010
    32  H    0.000000   0.000000   0.000002   0.000534  -0.000001   0.001812
    33  H    0.000000   0.000002   0.000000  -0.000001   0.000534  -0.002195
    34  H    0.000000   0.000000   0.000000   0.000000   0.000002   0.000534
    35  H    0.000000   0.000000   0.000000   0.000002   0.000000  -0.000001
    36  H    0.000000   0.000000   0.000000   0.000000   0.000000   0.000000
[...]
    33  H    2.818345   2.189533   1.104103   2.189560   2.818356
    34  H    4.271100   2.818359   2.189560   1.104103   2.189533
    35  H    4.271100   2.818359   2.189560   1.104103   2.189533
    36  H    5.302343   4.271040   2.818299   2.189529   1.104103
    37  H    5.302343   4.271040   2.818299   2.189529   1.104103
    38  H    6.718571   5.302441   4.271139   2.818415   2.189568
    39  H    6.718572   5.302441   4.271139   2.818416   2.189568
    40  H    7.857048   6.718378   5.302229   4.271004   2.818242
    41  H    7.857047   6.718378   5.302229   4.271003   2.818242
    42  H    9.245806   7.857338   6.718604   5.302525   4.271141
    43  H    9.245807   7.857339   6.718604   5.302525   4.271142
    44  H   10.431025   9.245845   7.857309   6.718723   5.302536
    45  H   10.431024   9.245844   7.857307   6.718722   5.302535
    46  H   11.800138  10.429612   9.244300   7.855895   6.717096
    47  H   11.800139  10.429613   9.244301   7.855896   6.717096
    48  H   13.043829  11.831805  10.462247   9.275423   7.888250
    49  H   13.872057  12.562715  11.282385   9.970191   8.694775
    50  H   13.043833  11.831809  10.462251   9.275426   7.888254
                   11         12         13         14         15
    11  C    0.000000
    12  C    1.560874   0.000000
    13  C    2.593093   1.560834   0.000000
    14  C    3.985387   2.592899   1.560745   0.000000
    15  C    5.186282   3.985508   2.593189   1.560845   0.000000
    16  C    6.536599   5.182328   3.981267   2.589429   1.555971
    17  H   13.872060  15.155374  16.462801  17.748029  19.054262
    18  H   13.043845  14.401287  15.629254  16.977828  18.216961
    19  H   13.043843  14.401285  15.629253  16.977826  18.216959
    20  H   11.800134  13.010948  14.369299  15.596042  16.945808
    21  H   11.800134  13.010948  14.369299  15.596041  16.945808
    22  H   10.431036  11.801589  13.012467  14.370601  15.597883
    23  H   10.431037  11.801590  13.012468  14.370602  15.597884
    24  H    9.245803  10.430979  11.801591  13.012194  14.370798
    25  H    9.245802  10.430979  11.801591  13.012193  14.370797
    26  H    7.857057   9.245506  10.430803  11.801169  13.012353
    27  H    7.857057   9.245507  10.430804  11.801170  13.012354
    28  H    6.718568   7.857174   9.245708  10.430691  11.801532
    29  H    6.718568   7.857173   9.245707  10.430690  11.801531
    30  H    5.302350   6.718435   7.857204   9.245486  10.431072
    31  H    5.302350   6.718436   7.857204   9.245487  10.431073
    32  H    4.271098   5.302307   6.718466   7.856916   9.245641
    33  H    4.271098   5.302306   6.718465   7.856915   9.245639
    34  H    2.818348   4.271062   5.302430   6.718375   7.857405
    35  H    2.818348   4.271063   5.302430   6.718376   7.857406
    36  H    2.189548   2.818287   4.271018   5.302111   6.718418
    37  H    2.189548   2.818287   4.271017   5.302111   6.718417
    38  H    1.104103   2.189534   2.818375   4.270969   5.302576
    39  H    1.104103   2.189534   2.818376   4.270969   5.302577
    40  H    2.189525   1.104102   2.189505   2.818179   4.270998
    41  H    2.189525   1.104102   2.189504   2.818179   4.270998
    42  H    2.818442   2.189556   1.104109   2.189412   2.818488
    43  H    2.818442   2.189556   1.104109   2.189412   2.818489
    44  H    4.271341   2.818580   2.189706   1.104100   2.189145
    45  H    4.271340   2.818579   2.189706   1.104100   2.189145
    46  H    5.301041   4.269705   2.817017   2.188574   1.104082
    47  H    5.301042   4.269706   2.817016   2.188574   1.104082
    48  H    6.747051   5.332777   4.296425   2.846099   2.200551
    49  H    7.378011   6.111846   4.786801   3.543833   2.199886
    50  H    6.747054   5.332781   4.296427   2.846102   2.200551
                   16         17         18         19         20
    16  C    0.000000
    17  H   20.337247   0.000000
    18  H   19.555040   1.784531   0.000000
    19  H   19.555038   1.784531   1.783419   0.000000
    20  H   18.179985   2.522072   2.541678   3.103174   0.000000
    21  H   18.179984   2.522071   3.103174   2.541679   1.777237
    22  H   16.943210   3.823222   3.171893   2.625069   3.095805
    23  H   16.943211   3.823223   2.625070   3.171891   2.534775
    24  H   15.593930   4.942504   4.480251   4.821061   2.591672
    25  H   15.593929   4.942504   4.821062   4.480251   3.142571
    26  H   14.366465   6.278205   5.513750   5.218376   4.798497
    27  H   14.366466   6.278205   5.218378   5.513749   4.457196
    28  H   13.008576   7.480029   6.865627   7.092730   5.184855
    29  H   13.008575   7.480029   7.092730   6.865626   5.481033
    30  H   11.797379   8.812471   8.011673   7.811332   7.064992
    31  H   11.797380   8.812471   7.811334   8.011672   6.837772
    32  H   10.427148  10.045944   9.362058   9.529853   7.777986
    33  H   10.427147  10.045944   9.529854   9.362057   7.978474
    34  H    9.241572  11.373337  10.555624  10.404383   9.500098
    35  H    9.241573  11.373338  10.404385  10.555624   9.332356
    36  H    7.853511  12.622903  11.899832  12.032287  10.371035
    37  H    7.853510  12.622903  12.032288  11.899830  10.522231
    38  H    6.714297  13.946179  13.118897  12.997517  12.001629
    39  H    6.714298  13.946180  12.997519  13.118897  11.869293
    40  H    5.298946  15.205252  14.457168  14.566387  12.963992
    41  H    5.298946  15.205250  14.566387  14.457165  13.085261
    42  H    4.266660  16.525397  15.692038  15.590703  14.535315
    43  H    4.266661  16.525399  15.590706  15.692038  14.426241
    44  H    2.815190  17.791063  17.025678  17.118515  15.557315
    45  H    2.815190  17.791060  17.118515  17.025674  15.658509
    46  H    2.186051  19.106858  18.269330  18.182376  17.085311
    47  H    2.186051  19.106860  18.182379  18.269330  16.992626
    48  H    1.100826  20.409994  19.711626  19.630780  18.269301
    49  H    1.100924  21.235759  20.410015  20.410012  19.106847
    50  H    1.100826  20.409999  19.630787  19.711628  18.182354
                   21         22         23         24         25
    21  H    0.000000
    22  H    2.534775   0.000000
    23  H    3.095805   1.777435   0.000000
    24  H    3.142571   3.096854   2.535973   0.000000
    25  H    2.591671   2.535974   3.096854   1.777473   0.000000
    26  H    4.457196   2.593325   3.143989   3.096769   2.535859
    27  H    4.798497   3.143989   2.593325   2.535859   3.096769
    28  H    5.481034   4.800031   4.458805   2.593184   3.143887
    29  H    5.184855   4.458805   4.800031   3.143887   2.593184
    30  H    6.837771   5.186286   5.482418   4.799823   4.458575
    31  H    7.064992   5.482418   5.186287   4.458575   4.799824
    32  H    7.978474   7.066644   6.839453   5.186314   5.482451
    33  H    7.777985   6.839452   7.066644   5.482451   5.186314
    34  H    9.332355   7.779340   7.979817   7.066496   6.839295
    35  H    9.500098   7.979818   7.779341   6.839295   7.066496
    36  H   10.522231   9.501664   9.333932   7.779364   7.979843
    37  H   10.371034   9.333930   9.501663   7.979844   7.779363
    38  H   11.869292  10.372475  10.523668   9.501658   9.333921
    39  H   12.001630  10.523669  10.372476   9.333922   9.501659
    40  H   13.085261  12.003004  11.870669  10.372321  10.523518
    41  H   12.963991  11.870667  12.003003  10.523518  10.372319
    42  H   14.426239  12.965663  13.086931  12.003183  11.870846
    43  H   14.535316  13.086932  12.965665  11.870847  12.003184
    44  H   15.658510  14.536881  14.427809  12.965643  13.086910
    45  H   15.557312  14.427806  14.536880  13.086910  12.965641
    46  H   16.992624  15.557337  15.658534  14.535314  14.426238
    47  H   17.085312  15.658534  15.557339  14.426240  14.535314
    48  H   18.182348  17.025675  17.118515  15.692012  15.590678
    49  H   19.106846  17.791077  17.791079  16.525387  16.525385
    50  H   18.269305  17.118519  17.025681  15.590683  15.692016
                   26         27         28         29         30
    26  H    0.000000
    27  H    1.777468   0.000000
    28  H    3.096746   2.535827   0.000000
    29  H    2.535827   3.096746   1.777480   0.000000
    30  H    2.592961   3.143699   3.096790   2.535880   0.000000
    31  H    3.143700   2.592961   2.535880   3.096790   1.777472
    32  H    4.799722   4.458468   2.593130   3.143843   3.096746
    33  H    4.458467   4.799722   3.143844   2.593130   2.535828
    34  H    5.186015   5.482167   4.799858   4.458611   2.593054
    35  H    5.482168   5.186016   4.458611   4.799858   3.143779
    36  H    7.066275   6.839068   5.186180   5.482324   4.799729
    37  H    6.839067   7.066275   5.482324   5.186179   4.458473
    38  H    7.779150   7.979636   7.066529   6.839327   5.186189
    39  H    7.979637   7.779151   6.839328   7.066529   5.482334
    40  H    9.501262   9.333520   7.779137   7.979622   7.066276
    41  H    9.333518   9.501261   7.979622   7.779135   6.839067
    42  H   10.372337  10.523535   9.501658   9.333920   7.779376
    43  H   10.523536  10.372339   9.333921   9.501658   7.979857
    44  H   12.003005  11.870671  10.372459  10.523652   9.501665
    45  H   11.870668  12.003004  10.523651  10.372457   9.333931
    46  H   12.964011  13.085282  12.001628  11.869290  10.371050
    47  H   13.085282  12.964013  11.869292  12.001628  10.522248
    48  H   14.457167  14.566389  13.118876  12.997495  11.899831
    49  H   15.205265  15.205266  13.946170  13.946168  12.622914
    50  H   14.566392  14.457172  12.997501  13.118879  12.032292
                   31         32         33         34         35
    31  H    0.000000
    32  H    2.535828   0.000000
    33  H    3.096746   1.777475   0.000000
    34  H    3.143778   3.096791   2.535882   0.000000
    35  H    2.593054   2.535881   3.096791   1.777475   0.000000
    36  H    4.458474   2.593049   3.143774   3.096746   2.535828
    37  H    4.799729   3.143775   2.593049   2.535828   3.096746
    38  H    5.482333   4.799858   4.458611   2.593135   3.143847
    39  H    5.186190   4.458611   4.799858   3.143848   2.593135
    40  H    6.839069   5.186006   5.482158   4.799723   4.458468
    41  H    7.066275   5.482159   5.186005   4.458467   4.799723
    42  H    7.979857   7.066495   6.839294   5.186322   5.482459
    43  H    7.779378   6.839294   7.066495   5.482459   5.186323
    44  H    9.333933   7.779329   7.979805   7.066645   6.839454
    45  H    9.501664   7.979805   7.779327   6.839453   7.066645
    46  H   10.522248   9.500096   9.332353   7.777996   7.978486
    47  H   10.371052   9.332355   9.500096   7.978485   7.777998
    48  H   12.032289  10.555607  10.404367   9.362058   9.529854
    49  H   12.622916  11.373330  11.373328  10.045952  10.045953
    50  H   11.899836  10.404372  10.555611   9.529856   9.362061
                   36         37         38         39         40
    36  H    0.000000
    37  H    1.777472   0.000000
    38  H    3.096790   2.535880   0.000000
    39  H    2.535880   3.096790   1.777480   0.000000
    40  H    2.592957   3.143696   3.096746   2.535827   0.000000
    41  H    3.143696   2.592956   2.535827   3.096746   1.777468
    42  H    4.799823   4.458575   2.593188   3.143890   3.096769
    43  H    4.458575   4.799823   3.143890   2.593188   2.535859
    44  H    5.186280   5.482411   4.800031   4.458806   2.593322
    45  H    5.482411   5.186278   4.458805   4.800031   3.143986
    46  H    7.064991   6.837769   5.184862   5.481040   4.798497
    47  H    6.837771   7.064990   5.481039   5.184863   4.457196
    48  H    8.011661   7.811320   6.865627   7.092730   5.513742
    49  H    8.812467   8.812465   7.480033   7.480035   6.278203
    50  H    7.811325   8.011665   7.092732   6.865629   5.218374
                   41         42         43         44         45
    41  H    0.000000
    42  H    2.535859   0.000000
    43  H    3.096769   1.777473   0.000000
    44  H    3.143987   3.096854   2.535973   0.000000
    45  H    2.593321   2.535974   3.096854   1.777435   0.000000
    46  H    4.457195   2.591674   3.142574   3.095805   2.534774
    47  H    4.798497   3.142573   2.591674   2.534775   3.095805
    48  H    5.218369   4.480252   4.821061   3.171888   2.625065
    49  H    6.278201   4.942506   4.942508   3.823222   3.823221
    50  H    5.513746   4.821062   4.480252   2.625068   3.171893
                   46         47         48         49         50
    46  H    0.000000
    47  H    1.777237   0.000000
    48  H    2.541680   3.103174   0.000000
    49  H    2.522071   2.522073   1.784531   0.000000
    50  H    3.103174   2.541677   1.783419   1.784531   0.000000
 Stoichiometry    C16H34
 Framework group  C1[X(C16H34)]
 Deg. of freedom   144
 Full point group                 C1      NOp   1
 Largest Abelian subgroup         C1      NOp   1
 Largest concise Abelian subgroup C1      NOp   1
                         Standard orientation:                         
 ---------------------------------------------------------------------
 Center     Atomic      Atomic             Coordinates (Angstroms)
 Number     Number       Type             X           Y           Z
 ---------------------------------------------------------------------
      1          6           0        9.723809    0.340741   -0.000002
      2          6           0        8.423143   -0.513257   -0.000001
      3          6           0        7.134517    0.367471   -0.000001
      4          6           0        5.830064   -0.489457    0.000000
      5          6           0        4.541729    0.391677    0.000000
      6          6           0        3.237086   -0.465197    0.000001
      7          6           0        1.948829    0.416111    0.000001
      8          6           0        0.644114   -0.440662    0.000002
      9          6           0       -0.644115    0.440691    0.000002
     10          6           0       -1.948827   -0.416085    0.000002
     11          6           0       -3.237089    0.465218    0.000002
     12          6           0       -4.541727   -0.391665    0.000001
     13          6           0       -5.830068    0.489458    0.000001
     14          6           0       -7.134513   -0.367483   -0.000001
     15          6           0       -8.423149    0.513230   -0.000002
     16          6           0       -9.723804   -0.340784   -0.000003
     17          1           0       10.613416   -0.307822   -0.000004
     18          1           0        9.765861    0.984871    0.891707
     19          1           0        9.765859    0.984872   -0.891712
     20          1           0        8.415577   -1.168464    0.888618
     21          1           0        8.415576   -1.168465   -0.888620
     22          1           0        7.141063    1.022585   -0.888719
     23          1           0        7.141064    1.022586    0.888716
     24          1           0        5.824016   -1.144565    0.888737
     25          1           0        5.824015   -1.144567   -0.888736
     26          1           0        4.547851    1.046776   -0.888734
     27          1           0        4.547852    1.046778    0.888734
     28          1           0        3.230946   -1.120289    0.888741
     29          1           0        3.230945   -1.120290   -0.888738
     30          1           0        1.955005    1.071208   -0.888735
     31          1           0        1.955005    1.071208    0.888737
     32          1           0        0.637931   -1.095758    0.888739
     33          1           0        0.637931   -1.095758   -0.888736
     34          1           0       -0.637933    1.095787   -0.888735
     35          1           0       -0.637932    1.095787    0.888740
     36          1           0       -1.955002   -1.071182    0.888738
     37          1           0       -1.955002   -1.071182   -0.888735
     38          1           0       -3.230951    1.120311   -0.888737
     39          1           0       -3.230952    1.120310    0.888742
     40          1           0       -4.547844   -1.046766    0.888734
     41          1           0       -4.547843   -1.046765   -0.888733
     42          1           0       -5.824025    1.144568   -0.888736
     43          1           0       -5.824026    1.144566    0.888738
     44          1           0       -7.141054   -1.022598    0.888716
     45          1           0       -7.141052   -1.022598   -0.888718
     46          1           0       -8.415590    1.168438   -0.888621
     47          1           0       -8.415591    1.168438    0.888617
     48          1           0       -9.765845   -0.984917   -0.891711
     49          1           0      -10.613419    0.307768   -0.000007
     50          1           0       -9.765850   -0.984912    0.891708
 ---------------------------------------------------------------------
 Rotational constants (GHZ):      5.0880746      0.0611511      0.0607955
 1\1\GINC-MW\FOpt\RB3LYP\STO-3G\C16H34\BING\25-Feb-2019\0\\# opt(tight)
  b3lyp/sto-3g\\c16h34\\0,1\C,-0.03017782,-1.05432741,-2.58991571\C,0.3
 9095463,-2.42855591,-1.99393804\C,1.6716291,-2.32412801,-1.10781995\C,
 2.09376612,-3.70273407,-0.51018316\C,3.37445345,-3.59781578,0.3758383\
 C,3.79674133,-4.97647093,0.97359303\C,5.0774656,-4.87136641,1.85960027
 \C,5.49985005,-6.24997115,2.45741335\C,6.7805787,-6.14481395,3.3434120
 9\C,7.2029599,-7.52342014,3.94122415\C,8.48368397,-7.41832261,4.827232
 51\C,8.90596263,-8.79698187,5.42498428\C,10.18664936,-8.69207647,6.311
 00815\C,10.60877271,-10.07068881,6.90864006\C,11.88944563,-9.96627794,
 7.79476246\C,12.31056211,-11.34051444,8.39073301\H,-0.93457161,-1.1608
 4323,-3.20859178\H,0.77264675,-0.64139047,-3.21981542\H,-0.24369088,-0
 .33165164,-1.78743844\H,0.5746811,-3.14288452,-2.81550762\H,-0.4381352
 ,-2.8342202,-1.38809654\H,1.4884645,-1.61036993,-0.28560531\H,2.501393
 36,-1.9190683,-1.71317497\H,2.27661967,-4.41624164,-1.3326968\H,1.2636
 6861,-4.10753667,0.09490372\H,3.19154926,-2.88427927,1.19830605\H,4.20
 449701,-3.19298347,-0.22928979\H,3.97966495,-5.69001166,0.15113256\H,2
 .96671048,-5.38130525,1.57873814\H,4.89452319,-4.15780436,2.68203797\H
 ,5.90747342,-4.46651007,1.25443843\H,5.68279825,-6.96353532,1.63497869
 \H,4.66984671,-6.65482892,3.0625805\H,6.59763114,-5.43124982,4.1658469
 3\H,7.61058269,-5.73995702,2.73824525\H,7.3859004,-8.23698161,3.118785
 55\H,6.37295051,-7.92827468,4.54638504\H,8.3007634,-6.70478257,5.64969
 426\H,9.31371755,-7.01349153,4.22208897\H,9.08886297,-9.51051716,4.602
 51463\H,8.07591545,-9.20181026,6.03011002\H,10.0038004,-7.97857044,7.1
 3352415\H,11.01675131,-8.28727862,5.70592419\H,10.79193292,-10.7844447
 4,6.08642257\H,9.77900306,-10.47574368,7.51399093\H,11.70572373,-9.251
 95228,8.61633562\H,12.71854125,-9.56061835,7.18892575\H,11.50772933,-1
 1.75344894,9.02062388\H,13.21495245,-11.23401141,9.00941632\H,12.52407
 438,-12.06318606,7.5882518\\Version=ES64L-G09RevD.01\State=1-A\HF=-622
 .7602386\RMSD=2.842e-09\RMSF=7.145e-08\Dipole=-0.0000004,-0.0000008,-0
 .0000001\Quadrupole=0.0225768,-0.4621375,0.4395608,0.3913766,-0.967660
 4,0.6516272\PG=C01 [X(C16H34)]\\@


 CHARLIE BROWN.."I CAN'T GET THAT STUPID KITE IN THE
 AIR... I CAN'T... I C A N N O T..."
 LUCY.."OH COME NOW CHARLIE BROWN...THAT'S NO WAY TO TALK...
 THE TROUBLE WITH YOU IS YOU DON'T BELIEVE IN YOURSELF... YOU
 DON'T BELIEVE IN YOUR OWN ABILITIES...  YOU'VE GOT TO SAY TO
 YOURSELF...'I BELIEVE I CAN FLY THIS KITE.'... GO AHEAD SAY
 IT...."
 CHARLIE BROWN.."I BELIEVE THAT I CAN FLY THIS STUPID
 KITE.....I BELIEVE THAT I CAN FLY THIS KITE........
 I  A C T U A L L Y  B E L I E V E  T H A T  I  C A N ******"
 LUCY.."I'LL BET YOU TEN-TO-ONE YOU'RE WRONG......."    SCHULZ
 Job cpu time:       0 days  0 hours  1 minutes 42.4 seconds.
 File lengths (MBytes):  RWF=      9 Int=      0 D2E=      0 Chk=      4 Scr=      1
 Normal termination of Gaussian 09 at Mon Feb 25 22:31:12 2019.
