 Entering Gaussian System, Link 0=g09
 Input=c18h20.com
 Output=c18h20.out
 Initial command:
 /home/bing/src/g09_d.01/g09/l1.exe "/data/trash/Gau-5728.inp" -scrdir="/data/trash/"
 Entering Link 1 = /home/bing/src/g09_d.01/g09/l1.exe PID=      5730.
  
 Copyright (c) 1988,1990,1992,1993,1995,1998,2003,2009,2013,
            Gaussian, Inc.  All Rights Reserved.
  
 This is part of the Gaussian(R) 09 program.  It is based on
 the Gaussian(R) 03 system (copyright 2003, Gaussian, Inc.),
 the Gaussian(R) 98 system (copyright 1998, Gaussian, Inc.),
 the Gaussian(R) 94 system (copyright 1995, Gaussian, Inc.),
 the Gaussian 92(TM) system (copyright 1992, Gaussian, Inc.),
 the Gaussian 90(TM) system (copyright 1990, Gaussian, Inc.),
 the Gaussian 88(TM) system (copyright 1988, Gaussian, Inc.),
 the Gaussian 86(TM) system (copyright 1986, Carnegie Mellon
 University), and the Gaussian 82(TM) system (copyright 1983,
 Carnegie Mellon University). Gaussian is a federally registered
 trademark of Gaussian, Inc.
  
 This software contains proprietary and confidential information,
 including trade secrets, belonging to Gaussian, Inc.
  
 This software is provided under written license and may be
 used, copied, transmitted, or stored only in accord with that
 written license.
  
 The following legend is applicable only to US Government
 contracts under FAR:
  
                    RESTRICTED RIGHTS LEGEND
  
 Use, reproduction and disclosure by the US Government is
 subject to restrictions as set forth in subparagraphs (a)
 and (c) of the Commercial Computer Software - Restricted
 Rights clause in FAR 52.227-19.
  
 Gaussian, Inc.
 340 Quinnipiac St., Bldg. 40, Wallingford CT 06492
  
  
 ---------------------------------------------------------------
 Warning -- This program may not be used in any manner that
 competes with the business of Gaussian, Inc. or will provide
 assistance to any competitor of Gaussian, Inc.  The licensee
 of this program is prohibited from giving any competitor of
 Gaussian, Inc. access to this program.  By using this program,
 the user acknowledges that Gaussian, Inc. is engaged in the
 business of creating and licensing software in the field of
 computational chemistry and represents and warrants to the
 licensee that it is not a competitor of Gaussian, Inc. and that
 it will not use this program in any manner prohibited above.
 ---------------------------------------------------------------
  

 Cite this work as:
 Gaussian 09, Revision D.01,
 M. J. Frisch, G. W. Trucks, H. B. Schlegel, G. E. Scuseria, 
 M. A. Robb, J. R. Cheeseman, G. Scalmani, V. Barone, B. Mennucci, 
 G. A. Petersson, H. Nakatsuji, M. Caricato, X. Li, H. P. Hratchian, 
 A. F. Izmaylov, J. Bloino, G. Zheng, J. L. Sonnenberg, M. Hada, 
 M. Ehara, K. Toyota, R. Fukuda, J. Hasegawa, M. Ishida, T. Nakajima, 
 Y. Honda, O. Kitao, H. Nakai, T. Vreven, J. A. Montgomery, Jr., 
 J. E. Peralta, F. Ogliaro, M. Bearpark, J. J. Heyd, E. Brothers, 
 K. N. Kudin, V. N. Staroverov, T. Keith, R. Kobayashi, J. Normand, 
 K. Raghavachari, A. Rendell, J. C. Burant, S. S. Iyengar, J. Tomasi, 
 M. Cossi, N. Rega, J. M. Millam, M. Klene, J. E. Knox, J. B. Cross, 
 V. Bakken, C. Adamo, J. Jaramillo, R. Gomperts, R. E. Stratmann, 
 O. Yazyev, A. J. Austin, R. Cammi, C. Pomelli, J. W. Ochterski, 
 R. L. Martin, K. Morokuma, V. G. Zakrzewski, G. A. Voth, 
 P. Salvador, J. J. Dannenberg, S. Dapprich, A. D. Daniels, 
 O. Farkas, J. B. Foresman, J. V. Ortiz, J. Cioslowski, 
 and D. J. Fox, Gaussian, Inc., Wallingford CT, 2013.
 
 ******************************************
 Gaussian 09:  ES64L-G09RevD.01 24-Apr-2013
                25-Feb-2019 
 ******************************************
 %nproc=6
 Will use up to    6 processors via shared memory.
 -------------------------
 # opt(tight) b3lyp/sto-3g
 -------------------------
 1/7=10,14=-1,18=20,19=15,26=3,38=1/1,3;
 2/9=110,12=2,17=6,18=5,40=1/2;
 3/6=3,11=2,16=1,25=1,30=1,71=1,74=-5/1,2,3;
 4//1;
 5/5=2,38=5/2;
 6/7=2,8=2,9=2,10=2,28=1/1;
 7//1,2,3,16;
 1/7=10,14=-1,18=20,19=15,26=3/3(2);
 2/9=110/2;
 99//99;
 2/9=110/2;
 3/6=3,11=2,16=1,25=1,30=1,71=1,74=-5/1,2,3;
 4/5=5,16=3,69=1/1;
 5/5=2,38=5/2;
 7//1,2,3,16;
 1/7=10,14=-1,18=20,19=15,26=3/3(-5);
 2/9=110/2;
 6/7=2,8=2,9=2,10=2,19=2,28=1/1;
 99/9=1/99;
 ------
 c18h20
 ------
 Symbolic Z-matrix:
 Charge =  0 Multiplicity = 1
 C                     1.09864  -0.49654  -0.19722 
 C                     1.66695   0.37589  -1.0546 
 C                     3.12318   0.57816  -1.18384 
 C                     3.69246   1.46308  -2.05388 
 C                     5.13661   1.66741  -2.18586 
 C                     5.70546   2.55589  -3.05954 
 C                     7.14566   2.76098  -3.19248 
 C                     7.71437   3.6508   -4.06753 
 C                     9.15315   3.8562   -4.20087 
 C                     9.72181   4.7464   -5.0763 
 C                     11.16058   4.95179  -5.20963 
 C                     11.7293   5.84162  -6.08468 
 C                     13.16949   6.04671  -6.21763 
 C                     13.73834   6.9352   -7.0913 
 C                     15.18249   7.13954  -7.22327 
 C                     15.75177   8.02447  -8.0933 
 C                     17.208    8.22674  -8.22254 
 C                     17.7763   9.09918  -9.07992 
 H                     0.01109  -0.61728  -0.13152 
 H                     1.70191  -1.12278   0.47133 
 H                     1.03156   0.98892  -1.71138 
 H                     3.76757  -0.02987  -0.53167 
 H                     3.04431   2.06922  -2.70433 
 H                     5.78641   1.06225  -1.53632 
 H                     5.05443   3.16042  -3.7085 
 H                     7.79732   2.15682  -2.54386 
 H                     7.06225   4.25473  -4.71593 
 H                     9.80545   3.25238  -3.55256 
 H                     9.06951   5.35022  -5.7246 
 H                     11.81271   4.34787  -4.56123 
 H                     11.07763   6.44578  -6.7333 
 H                     13.82053   5.44218  -5.56867 
 H                     13.08854   7.54036  -7.74083 
 H                     15.83065   6.53339  -6.57282 
 H                     15.10738   8.6325   -8.74547 
 H                     17.84339   7.61372  -7.56577 
 H                     17.17303   9.72544  -9.74845 
 H                     18.86386   9.21994  -9.14561 
 

 GradGradGradGradGradGradGradGradGradGradGradGradGradGradGradGradGradGrad
 Berny optimization.
 Initialization pass.
                           ----------------------------
                           !    Initial Parameters    !
                           ! (Angstroms and Degrees)  !
 --------------------------                            --------------------------
 ! Name  Definition              Value          Derivative Info.                !
 --------------------------------------------------------------------------------
 ! R1    R(1,2)                  1.3488         estimate D2E/DX2                !
 ! R2    R(1,19)                 1.0962         estimate D2E/DX2                !
 ! R3    R(1,20)                 1.0968         estimate D2E/DX2                !
 ! R4    R(2,3)                  1.4759         estimate D2E/DX2                !
 ! R5    R(2,21)                 1.1004         estimate D2E/DX2                !
 ! R6    R(3,4)                  1.3653         estimate D2E/DX2                !
 ! R7    R(3,22)                 1.1001         estimate D2E/DX2                !
 ! R8    R(4,5)                  1.4645         estimate D2E/DX2                !
 ! R9    R(4,23)                 1.1003         estimate D2E/DX2                !
 ! R10   R(5,6)                  1.3698         estimate D2E/DX2                !
 ! R11   R(5,24)                 1.1002         estimate D2E/DX2                !
 ! R12   R(6,7)                  1.4608         estimate D2E/DX2                !
 ! R13   R(6,25)                 1.1002         estimate D2E/DX2                !
 ! R14   R(7,8)                  1.3715         estimate D2E/DX2                !
 ! R15   R(7,26)                 1.1002         estimate D2E/DX2                !
 ! R16   R(8,9)                  1.4595         estimate D2E/DX2                !
 ! R17   R(8,27)                 1.1002         estimate D2E/DX2                !
 ! R18   R(9,10)                 1.3719         estimate D2E/DX2                !
 ! R19   R(9,28)                 1.1002         estimate D2E/DX2                !
 ! R20   R(10,11)                1.4595         estimate D2E/DX2                !
 ! R21   R(10,29)                1.1002         estimate D2E/DX2                !
 ! R22   R(11,12)                1.3715         estimate D2E/DX2                !
 ! R23   R(11,30)                1.1002         estimate D2E/DX2                !
 ! R24   R(12,13)                1.4608         estimate D2E/DX2                !
 ! R25   R(12,31)                1.1002         estimate D2E/DX2                !
 ! R26   R(13,14)                1.3698         estimate D2E/DX2                !
 ! R27   R(13,32)                1.1002         estimate D2E/DX2                !
 ! R28   R(14,15)                1.4645         estimate D2E/DX2                !
 ! R29   R(14,33)                1.1002         estimate D2E/DX2                !
 ! R30   R(15,16)                1.3653         estimate D2E/DX2                !
 ! R31   R(15,34)                1.1003         estimate D2E/DX2                !
 ! R32   R(16,17)                1.4759         estimate D2E/DX2                !
 ! R33   R(16,35)                1.1001         estimate D2E/DX2                !
 ! R34   R(17,18)                1.3488         estimate D2E/DX2                !
 ! R35   R(17,36)                1.1004         estimate D2E/DX2                !
 ! R36   R(18,37)                1.0968         estimate D2E/DX2                !
 ! R37   R(18,38)                1.0962         estimate D2E/DX2                !
 ! A1    A(2,1,19)             121.8278         estimate D2E/DX2                !
 ! A2    A(2,1,20)             121.6692         estimate D2E/DX2                !
 ! A3    A(19,1,20)            116.503          estimate D2E/DX2                !
 ! A4    A(1,2,3)              124.0592         estimate D2E/DX2                !
 ! A5    A(1,2,21)             119.7654         estimate D2E/DX2                !
 ! A6    A(3,2,21)             116.1754         estimate D2E/DX2                !
 ! A7    A(2,3,4)              123.7816         estimate D2E/DX2                !
 ! A8    A(2,3,22)             116.7622         estimate D2E/DX2                !
 ! A9    A(4,3,22)             119.4563         estimate D2E/DX2                !
 ! A10   A(3,4,5)              123.988          estimate D2E/DX2                !
 ! A11   A(3,4,23)             119.2195         estimate D2E/DX2                !
 ! A12   A(5,4,23)             116.7925         estimate D2E/DX2                !
 ! A13   A(4,5,6)              123.8826         estimate D2E/DX2                !
 ! A14   A(4,5,24)             116.9028         estimate D2E/DX2                !
 ! A15   A(6,5,24)             119.2146         estimate D2E/DX2                !
 ! A16   A(5,6,7)              123.955          estimate D2E/DX2                !
 ! A17   A(5,6,25)             119.1363         estimate D2E/DX2                !
 ! A18   A(7,6,25)             116.9087         estimate D2E/DX2                !
 ! A19   A(6,7,8)              123.9166         estimate D2E/DX2                !
 ! A20   A(6,7,26)             116.9508         estimate D2E/DX2                !
 ! A21   A(8,7,26)             119.1327         estimate D2E/DX2                !
 ! A22   A(7,8,9)              123.9448         estimate D2E/DX2                !
 ! A23   A(7,8,27)             119.1033         estimate D2E/DX2                !
 ! A24   A(9,8,27)             116.9519         estimate D2E/DX2                !
 ! A25   A(8,9,10)             123.9337         estimate D2E/DX2                !
 ! A26   A(8,9,28)             116.9637         estimate D2E/DX2                !
 ! A27   A(10,9,28)            119.1026         estimate D2E/DX2                !
 ! A28   A(9,10,11)            123.9337         estimate D2E/DX2                !
 ! A29   A(9,10,29)            119.1026         estimate D2E/DX2                !
 ! A30   A(11,10,29)           116.9636         estimate D2E/DX2                !
 ! A31   A(10,11,12)           123.9448         estimate D2E/DX2                !
 ! A32   A(10,11,30)           116.9519         estimate D2E/DX2                !
 ! A33   A(12,11,30)           119.1033         estimate D2E/DX2                !
 ! A34   A(11,12,13)           123.9166         estimate D2E/DX2                !
 ! A35   A(11,12,31)           119.1327         estimate D2E/DX2                !
 ! A36   A(13,12,31)           116.9507         estimate D2E/DX2                !
 ! A37   A(12,13,14)           123.9549         estimate D2E/DX2                !
 ! A38   A(12,13,32)           116.9087         estimate D2E/DX2                !
 ! A39   A(14,13,32)           119.1363         estimate D2E/DX2                !
 ! A40   A(13,14,15)           123.8827         estimate D2E/DX2                !
 ! A41   A(13,14,33)           119.2146         estimate D2E/DX2                !
 ! A42   A(15,14,33)           116.9028         estimate D2E/DX2                !
 ! A43   A(14,15,16)           123.988          estimate D2E/DX2                !
 ! A44   A(14,15,34)           116.7925         estimate D2E/DX2                !
 ! A45   A(16,15,34)           119.2195         estimate D2E/DX2                !
 ! A46   A(15,16,17)           123.7816         estimate D2E/DX2                !
 ! A47   A(15,16,35)           119.4563         estimate D2E/DX2                !
 ! A48   A(17,16,35)           116.7622         estimate D2E/DX2                !
 ! A49   A(16,17,18)           124.0592         estimate D2E/DX2                !
 ! A50   A(16,17,36)           116.1754         estimate D2E/DX2                !
 ! A51   A(18,17,36)           119.7654         estimate D2E/DX2                !
 ! A52   A(17,18,37)           121.6692         estimate D2E/DX2                !
 ! A53   A(17,18,38)           121.8278         estimate D2E/DX2                !
 ! A54   A(37,18,38)           116.503          estimate D2E/DX2                !
 ! D1    D(19,1,2,3)           179.9998         estimate D2E/DX2                !
 ! D2    D(19,1,2,21)            0.0            estimate D2E/DX2                !
 ! D3    D(20,1,2,3)             0.0            estimate D2E/DX2                !
 ! D4    D(20,1,2,21)         -179.9998         estimate D2E/DX2                !
 ! D5    D(1,2,3,4)           -179.9999         estimate D2E/DX2                !
 ! D6    D(1,2,3,22)             0.0001         estimate D2E/DX2                !
 ! D7    D(21,2,3,4)            -0.0001         estimate D2E/DX2                !
 ! D8    D(21,2,3,22)          179.9999         estimate D2E/DX2                !
 ! D9    D(2,3,4,5)           -180.0            estimate D2E/DX2                !
 ! D10   D(2,3,4,23)             0.0            estimate D2E/DX2                !
 ! D11   D(22,3,4,5)             0.0            estimate D2E/DX2                !
 ! D12   D(22,3,4,23)         -180.0            estimate D2E/DX2                !
 ! D13   D(3,4,5,6)           -179.9999         estimate D2E/DX2                !
 ! D14   D(3,4,5,24)             0.0            estimate D2E/DX2                !
 ! D15   D(23,4,5,6)             0.0001         estimate D2E/DX2                !
 ! D16   D(23,4,5,24)          180.0            estimate D2E/DX2                !
 ! D17   D(4,5,6,7)            179.9999         estimate D2E/DX2                !
 ! D18   D(4,5,6,25)             0.0            estimate D2E/DX2                !
 ! D19   D(24,5,6,7)             0.0            estimate D2E/DX2                !
 ! D20   D(24,5,6,25)         -179.9999         estimate D2E/DX2                !
 ! D21   D(5,6,7,8)           -179.9999         estimate D2E/DX2                !
 ! D22   D(5,6,7,26)             0.0            estimate D2E/DX2                !
 ! D23   D(25,6,7,8)             0.0            estimate D2E/DX2                !
 ! D24   D(25,6,7,26)          180.0            estimate D2E/DX2                !
 ! D25   D(6,7,8,9)            179.9999         estimate D2E/DX2                !
 ! D26   D(6,7,8,27)             0.0            estimate D2E/DX2                !
 ! D27   D(26,7,8,9)             0.0            estimate D2E/DX2                !
 ! D28   D(26,7,8,27)         -179.9999         estimate D2E/DX2                !
 ! D29   D(7,8,9,10)          -179.9999         estimate D2E/DX2                !
 ! D30   D(7,8,9,28)             0.0            estimate D2E/DX2                !
 ! D31   D(27,8,9,10)            0.0            estimate D2E/DX2                !
 ! D32   D(27,8,9,28)          179.9999         estimate D2E/DX2                !
 ! D33   D(8,9,10,11)          179.9999         estimate D2E/DX2                !
 ! D34   D(8,9,10,29)            0.0            estimate D2E/DX2                !
 ! D35   D(28,9,10,11)           0.0            estimate D2E/DX2                !
 ! D36   D(28,9,10,29)        -179.9999         estimate D2E/DX2                !
 ! D37   D(9,10,11,12)        -179.9999         estimate D2E/DX2                !
 ! D38   D(9,10,11,30)           0.0            estimate D2E/DX2                !
 ! D39   D(29,10,11,12)          0.0            estimate D2E/DX2                !
 ! D40   D(29,10,11,30)        179.9999         estimate D2E/DX2                !
 ! D41   D(10,11,12,13)        179.9999         estimate D2E/DX2                !
 ! D42   D(10,11,12,31)          0.0            estimate D2E/DX2                !
 ! D43   D(30,11,12,13)          0.0            estimate D2E/DX2                !
 ! D44   D(30,11,12,31)       -179.9999         estimate D2E/DX2                !
 ! D45   D(11,12,13,14)       -179.9999         estimate D2E/DX2                !
 ! D46   D(11,12,13,32)          0.0            estimate D2E/DX2                !
 ! D47   D(31,12,13,14)          0.0            estimate D2E/DX2                !
 ! D48   D(31,12,13,32)        179.9999         estimate D2E/DX2                !
 ! D49   D(12,13,14,15)        179.9999         estimate D2E/DX2                !
 ! D50   D(12,13,14,33)          0.0            estimate D2E/DX2                !
 ! D51   D(32,13,14,15)          0.0            estimate D2E/DX2                !
 ! D52   D(32,13,14,33)       -179.9999         estimate D2E/DX2                !
 ! D53   D(13,14,15,16)       -179.9999         estimate D2E/DX2                !
 ! D54   D(13,14,15,34)          0.0001         estimate D2E/DX2                !
 ! D55   D(33,14,15,16)          0.0            estimate D2E/DX2                !
 ! D56   D(33,14,15,34)        180.0            estimate D2E/DX2                !
 ! D57   D(14,15,16,17)       -180.0            estimate D2E/DX2                !
 ! D58   D(14,15,16,35)          0.0            estimate D2E/DX2                !
 ! D59   D(34,15,16,17)          0.0001         estimate D2E/DX2                !
 ! D60   D(34,15,16,35)       -180.0            estimate D2E/DX2                !
 ! D61   D(15,16,17,18)       -179.9999         estimate D2E/DX2                !
 ! D62   D(15,16,17,36)         -0.0001         estimate D2E/DX2                !
 ! D63   D(35,16,17,18)          0.0001         estimate D2E/DX2                !
 ! D64   D(35,16,17,36)        179.9999         estimate D2E/DX2                !
 ! D65   D(16,17,18,37)          0.0            estimate D2E/DX2                !
 ! D66   D(16,17,18,38)        179.9998         estimate D2E/DX2                !
 ! D67   D(36,17,18,37)       -179.9997         estimate D2E/DX2                !
 ! D68   D(36,17,18,38)          0.0            estimate D2E/DX2                !
 --------------------------------------------------------------------------------
 Trust Radius=3.00D-01 FncErr=1.00D-07 GrdErr=1.00D-06
 Number of steps in this run=    169 maximum allowed number of steps=    228.
 GradGradGradGradGradGradGradGradGradGradGradGradGradGradGradGradGradGrad

                          Input orientation:                          
 ---------------------------------------------------------------------
 Center     Atomic      Atomic             Coordinates (Angstroms)
 Number     Number       Type             X           Y           Z
 ---------------------------------------------------------------------
      1          6           0        1.098642   -0.496536   -0.197217
      2          6           0        1.666951    0.375893   -1.054605
      3          6           0        3.123179    0.578158   -1.183843
      4          6           0        3.692459    1.463078   -2.053880
      5          6           0        5.136615    1.667411   -2.185858
      6          6           0        5.705462    2.555892   -3.059537
      7          6           0        7.145661    2.760977   -3.192483
      8          6           0        7.714375    3.650803   -4.067534
      9          6           0        9.153148    3.856198   -4.200869
     10          6           0        9.721811    4.746395   -5.076298
     11          6           0       11.160583    4.951792   -5.209632
     12          6           0       11.729296    5.841621   -6.084680
     13          6           0       13.169494    6.046711   -6.217625
     14          6           0       13.738339    6.935198   -7.091299
     15          6           0       15.182494    7.139540   -7.223272
     16          6           0       15.751770    8.024470   -8.093303
     17          6           0       17.207997    8.226742   -8.222539
     18          6           0       17.776303    9.099183   -9.079918
     19          1           0        0.011087   -0.617282   -0.131518
     20          1           0        1.701914   -1.122784    0.471326
     21          1           0        1.031559    0.988916   -1.711380
     22          1           0        3.767567   -0.029872   -0.531670
     23          1           0        3.044305    2.069224   -2.704333
     24          1           0        5.786408    1.062251   -1.536320
     25          1           0        5.054431    3.160423   -3.708497
     26          1           0        7.797324    2.156815   -2.543864
     27          1           0        7.062249    4.254727   -4.715935
     28          1           0        9.805451    3.252377   -3.552564
     29          1           0        9.069507    5.350217   -5.724603
     30          1           0       11.812710    4.347868   -4.561232
     31          1           0       11.077632    6.445784   -6.733298
     32          1           0       13.820527    5.442180   -5.568665
     33          1           0       13.088544    7.540360   -7.740833
     34          1           0       15.830650    6.533394   -6.572822
     35          1           0       15.107380    8.632501   -8.745471
     36          1           0       17.843392    7.613720   -7.565765
     37          1           0       17.173027    9.725435   -9.748454
     38          1           0       18.863857    9.219939   -9.145610
 ---------------------------------------------------------------------
                    Distance matrix (angstroms):
                    1          2          3          4          5
     1  C    0.000000
     2  C    1.348786   0.000000
     3  C    2.495426   1.475877   0.000000
     4  C    3.743684   2.506632   1.365331   0.000000
     5  C    4.994256   3.871217   2.498886   1.464499   0.000000
     6  C    6.223583   5.008165   3.754710   2.501553   1.369781
     7  C    7.493294   6.346291   4.997969   3.860772   2.499089
     8  C    8.714798   7.508270   6.231846   5.001675   3.757579
     9  C    9.992527   8.834854   7.497234   6.336853   4.998359
    10  C   11.209496  10.007800   8.721660   7.501218   6.233683
    11  C   12.492047  11.328378   9.996775   8.826255   7.497904
    12  C   13.705666  12.507063  11.215503  10.000487   8.722860
    13  C   14.992161  13.824741  12.496899  11.320807   9.998028
    14  C   16.202500  15.006151  13.711004  12.499576  11.216175
    15  C   17.493714  16.323887  14.998451  13.819036  12.499577
    16  C   18.699462  17.505031  16.207082  14.998449  13.711004
    17  C   20.000318  18.829212  17.505033  16.323887  15.006152
    18  C   21.192560  20.000316  18.699463  17.493712  16.202500
    19  H    1.096208   2.140181   3.495938   4.644984   5.975883
    20  H    1.096847   2.139093   2.766366   4.126211   5.161684
    21  H    2.122206   1.100397   2.195881   2.724431   4.187716
    22  H    2.729981   2.202428   1.100120   2.133463   2.737042
    23  H    4.080976   2.736069   2.131054   1.100275   2.192722
    24  H    5.118415   4.203934   2.729720   2.193890   1.100158
    25  H    6.430452   5.125600   4.095328   2.733809   2.134074
    26  H    7.577557   6.555230   5.117562   4.191810   2.728929
    27  H    8.863291   7.586826   6.442756   5.122043   4.099214
    28  H   10.055906   8.986053   7.577272   6.543418   5.116448
    29  H   11.325688  10.067304   8.874112   7.582658   6.446194
    30  H   12.542095  11.445935  10.056113   8.974815   7.576113
    31  H   13.802044  12.555957  11.335732  10.063056   8.877373
    32  H   15.032204  13.919533  12.542672  11.435240  10.054978
    33  H   16.286670  15.049519  13.812128  12.552339  11.339420
    34  H   17.524278  16.400485  15.032822  13.909156  12.541357
    35  H   18.779157  17.548964  16.299440  15.049201  13.818726
    36  H   20.011457  18.880110  17.518925  16.384754  15.025451
    37  H   21.309639  20.085700  18.826138  17.584048  16.340130
    38  H   22.137898  20.962230  19.642787  18.456242  17.143979
                    6          7          8          9         10
     6  C    0.000000
     7  C    1.460790   0.000000
     8  C    2.500124   1.371474   0.000000
     9  C    3.857457   2.499271   1.459463   0.000000
    10  C    4.999669   3.758616   2.499545   1.371935   0.000000
    11  C    6.334161   4.998816   3.856593   2.499545   1.459463
    12  C    7.498939   6.234171   4.998815   3.758616   2.499271
    13  C    8.824462   7.498940   6.334161   4.999669   3.857457
    14  C    9.998027   8.722860   7.497903   6.233683   4.998359
    15  C   11.320807  10.000488   8.826255   7.501218   6.336853
    16  C   12.496898  11.215503   9.996774   8.721660   7.497233
    17  C   13.824740  12.507064  11.328378  10.007801   8.834853
    18  C   14.992159  13.705666  12.492046  11.209496   9.992526
    19  H    7.146204   8.466657   9.646213  10.961246  12.145700
    20  H    6.482904   7.625056   8.918412  10.106461  11.381658
    21  H    5.110607   6.535756   7.569487   8.965437  10.047974
    22  H    4.102648   5.126430   6.451899   7.587427   8.883659
    23  H    2.728511   4.187831   5.115590   6.538414   7.575127
    24  H    2.134878   2.734248   4.101792   5.122587   6.449167
    25  H    1.100204   2.190678   2.728494   4.186408   5.115722
    26  H    2.191134   1.100174   2.135521   2.733464   4.101560
    27  H    2.733234   2.135217   1.100189   2.189972   2.728528
    28  H    4.187849   2.728666   2.190100   1.100182   2.135615
    29  H    5.121291   4.100851   2.733179   2.135615   1.100182
    30  H    6.539476   5.115960   4.186405   2.728529   2.189972
    31  H    7.582084   6.447912   5.121495   4.101560   2.733464
    32  H    8.971101   7.575548   6.538158   5.115724   4.186408
    33  H   10.063268   8.879631   7.583104   6.449166   5.122585
    34  H   11.431672  10.054196   8.969934   7.575129   6.538415
    35  H   12.555919  11.344578  10.067618   8.883658   7.587425
    36  H   13.900254  12.534598  11.425380  10.047977   8.965438
    37  H   15.088042  13.857579  12.595241  11.381657  10.106459
    38  H   15.955976  14.644932  13.457826  12.145701  10.961246
                   11         12         13         14         15
    11  C    0.000000
    12  C    1.371474   0.000000
    13  C    2.500125   1.460790   0.000000
    14  C    3.757579   2.499089   1.369781   0.000000
    15  C    5.001676   3.860772   2.501554   1.464499   0.000000
    16  C    6.231846   4.997969   3.754710   2.498886   1.365331
    17  C    7.508270   6.346291   5.008165   3.871216   2.506632
    18  C    8.714798   7.493293   6.223583   4.994255   3.743684
    19  H   13.457826  14.644931  15.955977  17.143977  18.456242
    20  H   12.595244  13.857581  15.088046  16.340132  17.584052
    21  H   11.425379  12.534595  13.900252  15.025447  16.384752
    22  H   10.067621  11.344580  12.555923  13.818728  15.049205
    23  H    8.969933  10.054193  11.431670  12.541353  13.909154
    24  H    7.583106   8.879633  10.063271  11.339422  12.552342
    25  H    6.538157   7.575545   8.971100  10.054975  11.435238
    26  H    5.121497   6.447913   7.582086   8.877374  10.063059
    27  H    4.186404   5.115958   6.539475   7.576111   8.974813
    28  H    2.733179   4.100851   5.121293   6.446195   7.582660
    29  H    2.190100   2.728665   4.187848   5.116446   6.543417
    30  H    1.100189   2.135217   2.733234   4.099215   5.122044
    31  H    2.135521   1.100174   2.191134   2.728929   4.191809
    32  H    2.728495   2.190678   1.100204   2.134074   2.733809
    33  H    4.101792   2.734248   2.134878   1.100158   2.193890
    34  H    5.115592   4.187832   2.728511   2.192722   1.100275
    35  H    6.451898   5.126429   4.102648   2.737042   2.133463
    36  H    7.569488   6.535756   5.110608   4.187716   2.724431
    37  H    8.918411   7.625054   6.482904   5.161684   4.126211
    38  H    9.646213   8.466657   7.146204   5.975882   4.644984
                   16         17         18         19         20
    16  C    0.000000
    17  C    1.475877   0.000000
    18  C    2.495426   1.348786   0.000000
    19  H   19.642785  20.962230  22.137896   0.000000
    20  H   18.826141  20.085705  21.309642   1.864900   0.000000
    21  H   17.518920  18.880107  20.011452   2.473297   3.110122
    22  H   16.299443  17.548969  18.779160   3.823129   2.543104
    23  H   15.032818  16.400482  17.524274   4.799698   4.698483
    24  H   13.812131  15.049523  16.286673   6.176458   5.048575
    25  H   12.542668  13.919530  15.032200   7.245769   6.859749
    26  H   11.335734  12.555960  13.802047   8.610488   7.549911
    27  H   10.056110  11.445933  12.542091   9.719683   9.195569
    28  H    8.874114  10.067306  11.325690  11.072822  10.049927
    29  H    7.577270   8.986051  10.055903  12.204450  11.600461
    30  H    6.442757   7.586828   8.863292  13.548188  12.549218
    31  H    5.117561   6.555229   7.577555  14.694857  14.039014
    32  H    4.095329   5.125601   6.430453  16.030604  15.047957
    33  H    2.729720   4.203933   5.118414  17.189203  16.496817
    34  H    2.131054   2.736070   4.080976  18.517050  17.545890
    35  H    1.100120   2.202428   2.729980  19.689001  18.968961
    36  H    2.195881   1.100397   2.122206  21.000203  20.036682
    37  H    2.766366   2.139093   1.096847  22.225874  21.482158
    38  H    3.495938   2.140181   1.096208  23.096574  22.225878
                   21         22         23         24         25
    21  H    0.000000
    22  H    3.148870   0.000000
    23  H    2.490816   3.106409   0.000000
    24  H    4.758635   2.505549   3.146009   0.000000
    25  H    4.988729   4.682546   2.497933   3.107486   0.000000
    26  H    6.916111   5.006942   4.756533   2.501399   3.144370
    27  H    7.487462   6.835261   4.996683   4.682907   2.498752
    28  H    9.246318   7.506997   6.916101   5.001460   4.754468
    29  H    9.986766   9.166377   7.495999   6.834259   4.998070
    30  H   11.646348  10.006313   9.247984   7.500779   6.914587
    31  H   12.486819  11.568551   9.996058   9.164500   7.498131
    32  H   14.080763  12.505066  11.649386   9.999532   9.247219
    33  H   14.988216  14.005751  12.497456  11.566463   9.999527
    34  H   16.534447  15.002998  14.084908  12.497462  11.649385
    35  H   17.493758  16.464951  15.002991  14.005751  12.505060
    36  H   18.994725  17.493766  16.534447  14.988222  14.080763
    37  H   20.036674  18.968961  17.545883  16.496818  15.047951
    38  H   21.000199  19.689006  18.517046  17.189207  16.030601
                   26         27         28         29         30
    26  H    0.000000
    27  H    3.107967   0.000000
    28  H    2.500062   3.143771   0.000000
    29  H    4.683307   2.499318   3.108103   0.000000
    30  H    4.999381   4.753892   2.499320   3.143771   0.000000
    31  H    6.834255   4.999379   4.683307   2.500060   3.107967
    32  H    7.498134   6.914587   4.998073   4.754468   2.498753
    33  H    9.164500   7.500775   6.834259   5.001457   4.682907
    34  H    9.996063   9.247984   7.496002   6.916100   4.996685
    35  H   11.568551  10.006309   9.166378   7.506994   6.835261
    36  H   12.486825  11.646347   9.986770   9.246317   7.487465
    37  H   14.039015  12.549213  11.600462  10.049923   9.195570
    38  H   14.694861  13.548185  12.204453  11.072820   9.719685
                   31         32         33         34         35
    31  H    0.000000
    32  H    3.144370   0.000000
    33  H    2.501398   3.107486   0.000000
    34  H    4.756533   2.497934   3.146009   0.000000
    35  H    5.006940   4.682546   2.505548   3.106409   0.000000
    36  H    6.916110   4.988731   4.758635   2.490817   3.148870
    37  H    7.549909   6.859750   5.048574   4.698483   2.543103
    38  H    8.610487   7.245770   6.176457   4.799699   3.823128
                   36         37         38
    36  H    0.000000
    37  H    3.110122   0.000000
    38  H    2.473298   1.864900   0.000000
 Stoichiometry    C18H20
 Framework group  C1[X(C18H20)]
 Deg. of freedom   108
 Full point group                 C1      NOp   1
 Largest Abelian subgroup         C1      NOp   1
 Largest concise Abelian subgroup C1      NOp   1
                         Standard orientation:                         
 ---------------------------------------------------------------------
 Center     Atomic      Atomic             Coordinates (Angstroms)
 Number     Number       Type             X           Y           Z
 ---------------------------------------------------------------------
      1          6           0       10.593326    0.250173    0.000018
      2          6           0        9.406497   -0.390654    0.000011
      3          6           0        8.098260    0.292521    0.000007
      4          6           0        6.900029   -0.361979    0.000002
      5          6           0        5.599444    0.311248   -0.000002
      6          6           0        4.398517   -0.347595   -0.000007
      7          6           0        3.100380    0.322290   -0.000009
      8          6           0        1.898411   -0.338173   -0.000011
      9          6           0        0.601122    0.330463   -0.000012
     10          6           0       -0.601122   -0.330456   -0.000013
     11          6           0       -1.898411    0.338180   -0.000012
     12          6           0       -3.100379   -0.322285   -0.000010
     13          6           0       -4.398518    0.347599   -0.000007
     14          6           0       -5.599444   -0.311247   -0.000003
     15          6           0       -6.900030    0.361978    0.000002
     16          6           0       -8.098259   -0.292525    0.000007
     17          6           0       -9.406498    0.390647    0.000011
     18          6           0      -10.593326   -0.250183    0.000019
     19          1           0       11.544526   -0.294705    0.000023
     20          1           0       10.656512    1.345198    0.000022
     21          1           0        9.379638   -1.490724    0.000010
     22          1           0        8.113848    1.392531    0.000009
     23          1           0        6.888985   -1.462199    0.000000
     24          1           0        5.608370    1.411370   -0.000001
     25          1           0        4.391093   -1.447774   -0.000007
     26          1           0        3.106996    1.422444   -0.000008
     27          1           0        1.892359   -1.438345   -0.000011
     28          1           0        0.606948    1.430629   -0.000012
     29          1           0       -0.606948   -1.430622   -0.000012
     30          1           0       -1.892360    1.438352   -0.000012
     31          1           0       -3.106994   -1.422439   -0.000008
     32          1           0       -4.391096    1.447778   -0.000008
     33          1           0       -5.608368   -1.411369   -0.000001
     34          1           0       -6.888988    1.462198    0.000000
     35          1           0       -8.113845   -1.392535    0.000009
     36          1           0       -9.379642    1.490716    0.000011
     37          1           0      -10.656508   -1.345209    0.000023
     38          1           0      -11.544526    0.294692    0.000025
 ---------------------------------------------------------------------
 Rotational constants (GHZ):      8.3426122      0.0499928      0.0496951
 Standard basis: STO-3G (5D, 7F)
 There are   110 symmetry adapted cartesian basis functions of A   symmetry.
 There are   110 symmetry adapted basis functions of A   symmetry.
   110 basis functions,   330 primitive gaussians,   110 cartesian basis functions
    64 alpha electrons       64 beta electrons
       nuclear repulsion energy       926.3551500450 Hartrees.
 NAtoms=   38 NActive=   38 NUniq=   38 SFac= 1.00D+00 NAtFMM=   60 NAOKFM=F Big=F
 Integral buffers will be    131072 words long.
 Raffenetti 2 integral format.
 Two-electron integral symmetry is turned on.
 One-electron integrals computed using PRISM.
 NBasis=   110 RedAO= T EigKep=  1.94D-01  NBF=   110
 NBsUse=   110 1.00D-06 EigRej= -1.00D+00 NBFU=   110
 ExpMin= 1.69D-01 ExpMax= 7.16D+01 ExpMxC= 7.16D+01 IAcc=1 IRadAn=         1 AccDes= 0.00D+00
 Harris functional with IExCor=  402 and IRadAn=       1 diagonalized for initial guess.
 HarFok:  IExCor=  402 AccDes= 0.00D+00 IRadAn=         1 IDoV= 1 UseB2=F ITyADJ=14
 ICtDFT=  3500011 ScaDFX=  1.000000  1.000000  1.000000  1.000000
 FoFCou: FMM=F IPFlag=           0 FMFlag=      100000 FMFlg1=           0
         NFxFlg=           0 DoJE=T BraDBF=F KetDBF=T FulRan=T
         wScrn=  0.000000 ICntrl=     500 IOpCl=  0 I1Cent=   200000004 NGrid=           0
         NMat0=    1 NMatS0=      1 NMatT0=    0 NMatD0=    1 NMtDS0=    0 NMtDT0=    0
 Petite list used in FoFCou.
 Keep R1 ints in memory in canonical form, NReq=19629595.
 Requested convergence on RMS density matrix=1.00D-08 within 128 cycles.
 Requested convergence on MAX density matrix=1.00D-06.
 Requested convergence on             energy=1.00D-06.
 No special actions if energy rises.
 Integral accuracy reduced to 1.0D-05 until final iterations.
 Initial convergence to 1.0D-05 achieved.  Increase integral accuracy.
 SCF Done:  E(RB3LYP) =  -689.273592456     A.U. after   14 cycles
            NFock= 14  Conv=0.63D-08     -V/T= 2.0168

 **********************************************************************

            Population analysis using the SCF density.

 **********************************************************************

 Orbital symmetries:
       Occupied  (A) (A) (A) (A) (A) (A) (A) (A) (A) (A) (A) (A)
                 (A) (A) (A) (A) (A) (A) (A) (A) (A) (A) (A) (A)
                 (A) (A) (A) (A) (A) (A) (A) (A) (A) (A) (A) (A)
                 (A) (A) (A) (A) (A) (A) (A) (A) (A) (A) (A) (A)
                 (A) (A) (A) (A) (A) (A) (A) (A) (A) (A) (A) (A)
                 (A) (A) (A) (A)
       Virtual   (A) (A) (A) (A) (A) (A) (A) (A) (A) (A) (A) (A)
                 (A) (A) (A) (A) (A) (A) (A) (A) (A) (A) (A) (A)
                 (A) (A) (A) (A) (A) (A) (A) (A) (A) (A) (A) (A)
                 (A) (A) (A) (A) (A) (A) (A) (A) (A) (A)
 The electronic state is 1-A.
 Alpha  occ. eigenvalues --  -10.00842 -10.00842 -10.00787 -10.00779 -10.00768
 Alpha  occ. eigenvalues --  -10.00756 -10.00745 -10.00739 -10.00697 -10.00684
 Alpha  occ. eigenvalues --  -10.00670 -10.00658 -10.00648 -10.00644 -10.00585
 Alpha  occ. eigenvalues --  -10.00585  -9.99176  -9.99176  -0.78143  -0.77568
 Alpha  occ. eigenvalues --   -0.76650  -0.75399  -0.73824  -0.71942  -0.69779
 Alpha  occ. eigenvalues --   -0.67388  -0.64964  -0.59782  -0.57047  -0.54100
 Alpha  occ. eigenvalues --   -0.52713  -0.52269  -0.51531  -0.51529  -0.50622
 Alpha  occ. eigenvalues --   -0.50292  -0.44188  -0.43545  -0.43101  -0.41798
 Alpha  occ. eigenvalues --   -0.40737  -0.39999  -0.37885  -0.37680  -0.35875
 Alpha  occ. eigenvalues --   -0.35332  -0.34189  -0.33484  -0.32843  -0.32302
 Alpha  occ. eigenvalues --   -0.31996  -0.31324  -0.30693  -0.30108  -0.29916
 Alpha  occ. eigenvalues --   -0.29313  -0.29307  -0.28011  -0.26227  -0.23964
 Alpha  occ. eigenvalues --   -0.21241  -0.18102  -0.14654  -0.11255
 Alpha virt. eigenvalues --   -0.00663   0.03110   0.07172   0.11117   0.14744
 Alpha virt. eigenvalues --    0.17906   0.20484   0.22382   0.23543   0.30681
 Alpha virt. eigenvalues --    0.32317   0.34678   0.37122   0.39223   0.40800
 Alpha virt. eigenvalues --    0.40891   0.41580   0.42041   0.42621   0.42791
 Alpha virt. eigenvalues --    0.42881   0.42928   0.43030   0.43187   0.43361
 Alpha virt. eigenvalues --    0.43403   0.43604   0.44008   0.51627   0.51783
 Alpha virt. eigenvalues --    0.54334   0.54575   0.57376   0.58897   0.61237
 Alpha virt. eigenvalues --    0.62395   0.64702   0.65969   0.67722   0.69223
 Alpha virt. eigenvalues --    0.70062   0.72265   0.74533   0.76260   0.77322
 Alpha virt. eigenvalues --    0.77670
          Condensed to atoms (all electrons):
               1          2          3          4          5          6
     1  C    4.856516   0.579325  -0.027605   0.000687  -0.000006   0.000000
     2  C    0.579325   4.789960   0.426602  -0.026676   0.000812  -0.000006
     3  C   -0.027605   0.426602   4.819001   0.557470  -0.026988   0.000697
     4  C    0.000687  -0.026676   0.557470   4.808964   0.438050  -0.026944
     5  C   -0.000006   0.000812  -0.026988   0.438050   4.814085   0.551218
     6  C    0.000000  -0.000006   0.000697  -0.026944   0.551218   4.811067
     7  C    0.000000   0.000000  -0.000006   0.000815  -0.027039   0.441849
     8  C    0.000000   0.000000   0.000000  -0.000006   0.000704  -0.027019
     9  C    0.000000   0.000000   0.000000   0.000000  -0.000006   0.000815
    10  C    0.000000   0.000000   0.000000   0.000000   0.000000  -0.000006
    11  C    0.000000   0.000000   0.000000   0.000000   0.000000   0.000000
    12  C    0.000000   0.000000   0.000000   0.000000   0.000000   0.000000
    13  C    0.000000   0.000000   0.000000   0.000000   0.000000   0.000000
    14  C    0.000000   0.000000   0.000000   0.000000   0.000000   0.000000
    15  C    0.000000   0.000000   0.000000   0.000000   0.000000   0.000000
    16  C    0.000000   0.000000   0.000000   0.000000   0.000000   0.000000
    17  C    0.000000   0.000000   0.000000   0.000000   0.000000   0.000000
    18  C    0.000000   0.000000   0.000000   0.000000   0.000000   0.000000
    19  H    0.388068  -0.023830   0.001413  -0.000019   0.000000   0.000000
    20  H    0.386160  -0.024405  -0.004209   0.000025  -0.000001   0.000000
    21  H   -0.026786   0.385311  -0.025323  -0.003236   0.000003   0.000000
    22  H   -0.003082  -0.024623   0.384226  -0.026601  -0.004156   0.000024
    23  H    0.000027  -0.004217  -0.026728   0.384340  -0.024988  -0.003295
    24  H    0.000000   0.000004  -0.003268  -0.024902   0.384351  -0.026573
    25  H    0.000000  -0.000001   0.000024  -0.004166  -0.026620   0.384386
    26  H    0.000000   0.000000   0.000000   0.000005  -0.003312  -0.024996
    27  H    0.000000   0.000000   0.000000  -0.000001   0.000024  -0.004147
    28  H    0.000000   0.000000   0.000000   0.000000   0.000000   0.000005
    29  H    0.000000   0.000000   0.000000   0.000000   0.000000  -0.000001
    30  H    0.000000   0.000000   0.000000   0.000000   0.000000   0.000000
    31  H    0.000000   0.000000   0.000000   0.000000   0.000000   0.000000
    32  H    0.000000   0.000000   0.000000   0.000000   0.000000   0.000000
    33  H    0.000000   0.000000   0.000000   0.000000   0.000000   0.000000
    34  H    0.000000   0.000000   0.000000   0.000000   0.000000   0.000000
    35  H    0.000000   0.000000   0.000000   0.000000   0.000000   0.000000
    36  H    0.000000   0.000000   0.000000   0.000000   0.000000   0.000000
    37  H    0.000000   0.000000   0.000000   0.000000   0.000000   0.000000
    38  H    0.000000   0.000000   0.000000   0.000000   0.000000   0.000000
               7          8          9         10         11         12
     1  C    0.000000   0.000000   0.000000   0.000000   0.000000   0.000000
     2  C    0.000000   0.000000   0.000000   0.000000   0.000000   0.000000
     3  C   -0.000006   0.000000   0.000000   0.000000   0.000000   0.000000
     4  C    0.000815  -0.000006   0.000000   0.000000   0.000000   0.000000
     5  C   -0.027039   0.000704  -0.000006   0.000000   0.000000   0.000000
     6  C    0.441849  -0.027019   0.000815  -0.000006   0.000000   0.000000
     7  C    4.813011   0.548850  -0.027050   0.000706  -0.000006   0.000000
     8  C    0.548850   4.811942   0.443213  -0.027045   0.000815  -0.000006
     9  C   -0.027050   0.443213   4.812463   0.548207  -0.027045   0.000706
    10  C    0.000706  -0.027045   0.548207   4.812463   0.443213  -0.027050
    11  C   -0.000006   0.000815  -0.027045   0.443213   4.811942   0.548850
    12  C    0.000000  -0.000006   0.000706  -0.027050   0.548850   4.813011
    13  C    0.000000   0.000000  -0.000006   0.000815  -0.027019   0.441849
    14  C    0.000000   0.000000   0.000000  -0.000006   0.000704  -0.027039
    15  C    0.000000   0.000000   0.000000   0.000000  -0.000006   0.000815
    16  C    0.000000   0.000000   0.000000   0.000000   0.000000  -0.000006
    17  C    0.000000   0.000000   0.000000   0.000000   0.000000   0.000000
    18  C    0.000000   0.000000   0.000000   0.000000   0.000000   0.000000
    19  H    0.000000   0.000000   0.000000   0.000000   0.000000   0.000000
    20  H    0.000000   0.000000   0.000000   0.000000   0.000000   0.000000
    21  H    0.000000   0.000000   0.000000   0.000000   0.000000   0.000000
    22  H   -0.000001   0.000000   0.000000   0.000000   0.000000   0.000000
    23  H    0.000005   0.000000   0.000000   0.000000   0.000000   0.000000
    24  H   -0.004146   0.000024  -0.000001   0.000000   0.000000   0.000000
    25  H   -0.025027  -0.003322   0.000005   0.000000   0.000000   0.000000
    26  H    0.384372  -0.026564  -0.004139   0.000023  -0.000001   0.000000
    27  H   -0.026583   0.384387  -0.025041  -0.003331   0.000005   0.000000
    28  H   -0.003328  -0.025033   0.384382  -0.026568  -0.004140   0.000024
    29  H    0.000024  -0.004140  -0.026568   0.384382  -0.025033  -0.003328
    30  H    0.000000   0.000005  -0.003331  -0.025041   0.384387  -0.026583
    31  H    0.000000  -0.000001   0.000023  -0.004139  -0.026564   0.384372
    32  H    0.000000   0.000000   0.000000   0.000005  -0.003322  -0.025027
    33  H    0.000000   0.000000   0.000000  -0.000001   0.000024  -0.004146
    34  H    0.000000   0.000000   0.000000   0.000000   0.000000   0.000005
    35  H    0.000000   0.000000   0.000000   0.000000   0.000000  -0.000001
    36  H    0.000000   0.000000   0.000000   0.000000   0.000000   0.000000
    37  H    0.000000   0.000000   0.000000   0.000000   0.000000   0.000000
    38  H    0.000000   0.000000   0.000000   0.000000   0.000000   0.000000
              13         14         15         16         17         18
     1  C    0.000000   0.000000   0.000000   0.000000   0.000000   0.000000
     2  C    0.000000   0.000000   0.000000   0.000000   0.000000   0.000000
     3  C    0.000000   0.000000   0.000000   0.000000   0.000000   0.000000
     4  C    0.000000   0.000000   0.000000   0.000000   0.000000   0.000000
     5  C    0.000000   0.000000   0.000000   0.000000   0.000000   0.000000
     6  C    0.000000   0.000000   0.000000   0.000000   0.000000   0.000000
     7  C    0.000000   0.000000   0.000000   0.000000   0.000000   0.000000
     8  C    0.000000   0.000000   0.000000   0.000000   0.000000   0.000000
     9  C   -0.000006   0.000000   0.000000   0.000000   0.000000   0.000000
    10  C    0.000815  -0.000006   0.000000   0.000000   0.000000   0.000000
    11  C   -0.027019   0.000704  -0.000006   0.000000   0.000000   0.000000
    12  C    0.441849  -0.027039   0.000815  -0.000006   0.000000   0.000000
    13  C    4.811067   0.551218  -0.026944   0.000697  -0.000006   0.000000
    14  C    0.551218   4.814085   0.438050  -0.026988   0.000812  -0.000006
    15  C   -0.026944   0.438050   4.808964   0.557470  -0.026676   0.000687
    16  C    0.000697  -0.026988   0.557470   4.819001   0.426602  -0.027605
    17  C   -0.000006   0.000812  -0.026676   0.426602   4.789960   0.579325
    18  C    0.000000  -0.000006   0.000687  -0.027605   0.579325   4.856516
    19  H    0.000000   0.000000   0.000000   0.000000   0.000000   0.000000
    20  H    0.000000   0.000000   0.000000   0.000000   0.000000   0.000000
    21  H    0.000000   0.000000   0.000000   0.000000   0.000000   0.000000
    22  H    0.000000   0.000000   0.000000   0.000000   0.000000   0.000000
    23  H    0.000000   0.000000   0.000000   0.000000   0.000000   0.000000
    24  H    0.000000   0.000000   0.000000   0.000000   0.000000   0.000000
    25  H    0.000000   0.000000   0.000000   0.000000   0.000000   0.000000
    26  H    0.000000   0.000000   0.000000   0.000000   0.000000   0.000000
    27  H    0.000000   0.000000   0.000000   0.000000   0.000000   0.000000
    28  H   -0.000001   0.000000   0.000000   0.000000   0.000000   0.000000
    29  H    0.000005   0.000000   0.000000   0.000000   0.000000   0.000000
    30  H   -0.004147   0.000024  -0.000001   0.000000   0.000000   0.000000
    31  H   -0.024996  -0.003312   0.000005   0.000000   0.000000   0.000000
    32  H    0.384386  -0.026620  -0.004166   0.000024  -0.000001   0.000000
    33  H   -0.026573   0.384351  -0.024902  -0.003268   0.000004   0.000000
    34  H   -0.003295  -0.024988   0.384340  -0.026728  -0.004217   0.000027
    35  H    0.000024  -0.004156  -0.026601   0.384226  -0.024623  -0.003082
    36  H    0.000000   0.000003  -0.003236  -0.025323   0.385311  -0.026786
    37  H    0.000000  -0.000001   0.000025  -0.004209  -0.024405   0.386160
    38  H    0.000000   0.000000  -0.000019   0.001413  -0.023830   0.388068
              19         20         21         22         23         24
     1  C    0.388068   0.386160  -0.026786  -0.003082   0.000027   0.000000
     2  C   -0.023830  -0.024405   0.385311  -0.024623  -0.004217   0.000004
     3  C    0.001413  -0.004209  -0.025323   0.384226  -0.026728  -0.003268
     4  C   -0.000019   0.000025  -0.003236  -0.026601   0.384340  -0.024902
     5  C    0.000000  -0.000001   0.000003  -0.004156  -0.024988   0.384351
     6  C    0.000000   0.000000   0.000000   0.000024  -0.003295  -0.026573
     7  C    0.000000   0.000000   0.000000  -0.000001   0.000005  -0.004146
     8  C    0.000000   0.000000   0.000000   0.000000   0.000000   0.000024
     9  C    0.000000   0.000000   0.000000   0.000000   0.000000  -0.000001
    10  C    0.000000   0.000000   0.000000   0.000000   0.000000   0.000000
    11  C    0.000000   0.000000   0.000000   0.000000   0.000000   0.000000
    12  C    0.000000   0.000000   0.000000   0.000000   0.000000   0.000000
    13  C    0.000000   0.000000   0.000000   0.000000   0.000000   0.000000
    14  C    0.000000   0.000000   0.000000   0.000000   0.000000   0.000000
    15  C    0.000000   0.000000   0.000000   0.000000   0.000000   0.000000
    16  C    0.000000   0.000000   0.000000   0.000000   0.000000   0.000000
    17  C    0.000000   0.000000   0.000000   0.000000   0.000000   0.000000
    18  C    0.000000   0.000000   0.000000   0.000000   0.000000   0.000000
    19  H    0.584126  -0.023565  -0.004627   0.000001  -0.000001   0.000000
    20  H   -0.023565   0.586617   0.002004   0.000954   0.000001   0.000000
    21  H   -0.004627   0.002004   0.592528   0.001555   0.001016   0.000000
    22  H    0.000001   0.000954   0.001555   0.592362   0.001969   0.000975
    23  H   -0.000001   0.000001   0.001016   0.001969   0.592809   0.001584
    24  H    0.000000   0.000000   0.000000   0.000975   0.001584   0.592496
    25  H    0.000000   0.000000   0.000000   0.000001   0.000985   0.001953
    26  H    0.000000   0.000000   0.000000   0.000000   0.000000   0.000980
    27  H    0.000000   0.000000   0.000000   0.000000   0.000000   0.000001
    28  H    0.000000   0.000000   0.000000   0.000000   0.000000   0.000000
    29  H    0.000000   0.000000   0.000000   0.000000   0.000000   0.000000
    30  H    0.000000   0.000000   0.000000   0.000000   0.000000   0.000000
    31  H    0.000000   0.000000   0.000000   0.000000   0.000000   0.000000
    32  H    0.000000   0.000000   0.000000   0.000000   0.000000   0.000000
    33  H    0.000000   0.000000   0.000000   0.000000   0.000000   0.000000
    34  H    0.000000   0.000000   0.000000   0.000000   0.000000   0.000000
    35  H    0.000000   0.000000   0.000000   0.000000   0.000000   0.000000
    36  H    0.000000   0.000000   0.000000   0.000000   0.000000   0.000000
    37  H    0.000000   0.000000   0.000000   0.000000   0.000000   0.000000
    38  H    0.000000   0.000000   0.000000   0.000000   0.000000   0.000000
              25         26         27         28         29         30
     1  C    0.000000   0.000000   0.000000   0.000000   0.000000   0.000000
     2  C   -0.000001   0.000000   0.000000   0.000000   0.000000   0.000000
     3  C    0.000024   0.000000   0.000000   0.000000   0.000000   0.000000
     4  C   -0.004166   0.000005  -0.000001   0.000000   0.000000   0.000000
     5  C   -0.026620  -0.003312   0.000024   0.000000   0.000000   0.000000
     6  C    0.384386  -0.024996  -0.004147   0.000005  -0.000001   0.000000
     7  C   -0.025027   0.384372  -0.026583  -0.003328   0.000024   0.000000
     8  C   -0.003322  -0.026564   0.384387  -0.025033  -0.004140   0.000005
     9  C    0.000005  -0.004139  -0.025041   0.384382  -0.026568  -0.003331
    10  C    0.000000   0.000023  -0.003331  -0.026568   0.384382  -0.025041
    11  C    0.000000  -0.000001   0.000005  -0.004140  -0.025033   0.384387
    12  C    0.000000   0.000000   0.000000   0.000024  -0.003328  -0.026583
    13  C    0.000000   0.000000   0.000000  -0.000001   0.000005  -0.004147
    14  C    0.000000   0.000000   0.000000   0.000000   0.000000   0.000024
    15  C    0.000000   0.000000   0.000000   0.000000   0.000000  -0.000001
    16  C    0.000000   0.000000   0.000000   0.000000   0.000000   0.000000
    17  C    0.000000   0.000000   0.000000   0.000000   0.000000   0.000000
    18  C    0.000000   0.000000   0.000000   0.000000   0.000000   0.000000
    19  H    0.000000   0.000000   0.000000   0.000000   0.000000   0.000000
    20  H    0.000000   0.000000   0.000000   0.000000   0.000000   0.000000
    21  H    0.000000   0.000000   0.000000   0.000000   0.000000   0.000000
    22  H    0.000001   0.000000   0.000000   0.000000   0.000000   0.000000
    23  H    0.000985   0.000000   0.000000   0.000000   0.000000   0.000000
    24  H    0.001953   0.000980   0.000001   0.000000   0.000000   0.000000
    25  H    0.592711   0.001598   0.000983   0.000000   0.000000   0.000000
    26  H    0.001598   0.592620   0.001948   0.000981   0.000001   0.000000
    27  H    0.000983   0.001948   0.592696   0.001603   0.000982   0.000000
    28  H    0.000000   0.000981   0.001603   0.592671   0.001946   0.000982
    29  H    0.000000   0.000001   0.000982   0.001946   0.592671   0.001603
    30  H    0.000000   0.000000   0.000000   0.000982   0.001603   0.592696
    31  H    0.000000   0.000000   0.000000   0.000001   0.000981   0.001948
    32  H    0.000000   0.000000   0.000000   0.000000   0.000000   0.000983
    33  H    0.000000   0.000000   0.000000   0.000000   0.000000   0.000001
    34  H    0.000000   0.000000   0.000000   0.000000   0.000000   0.000000
    35  H    0.000000   0.000000   0.000000   0.000000   0.000000   0.000000
    36  H    0.000000   0.000000   0.000000   0.000000   0.000000   0.000000
    37  H    0.000000   0.000000   0.000000   0.000000   0.000000   0.000000
    38  H    0.000000   0.000000   0.000000   0.000000   0.000000   0.000000
              31         32         33         34         35         36
     1  C    0.000000   0.000000   0.000000   0.000000   0.000000   0.000000
     2  C    0.000000   0.000000   0.000000   0.000000   0.000000   0.000000
     3  C    0.000000   0.000000   0.000000   0.000000   0.000000   0.000000
     4  C    0.000000   0.000000   0.000000   0.000000   0.000000   0.000000
     5  C    0.000000   0.000000   0.000000   0.000000   0.000000   0.000000
     6  C    0.000000   0.000000   0.000000   0.000000   0.000000   0.000000
     7  C    0.000000   0.000000   0.000000   0.000000   0.000000   0.000000
     8  C   -0.000001   0.000000   0.000000   0.000000   0.000000   0.000000
     9  C    0.000023   0.000000   0.000000   0.000000   0.000000   0.000000
    10  C   -0.004139   0.000005  -0.000001   0.000000   0.000000   0.000000
    11  C   -0.026564  -0.003322   0.000024   0.000000   0.000000   0.000000
    12  C    0.384372  -0.025027  -0.004146   0.000005  -0.000001   0.000000
    13  C   -0.024996   0.384386  -0.026573  -0.003295   0.000024   0.000000
    14  C   -0.003312  -0.026620   0.384351  -0.024988  -0.004156   0.000003
    15  C    0.000005  -0.004166  -0.024902   0.384340  -0.026601  -0.003236
    16  C    0.000000   0.000024  -0.003268  -0.026728   0.384226  -0.025323
    17  C    0.000000  -0.000001   0.000004  -0.004217  -0.024623   0.385311
    18  C    0.000000   0.000000   0.000000   0.000027  -0.003082  -0.026786
    19  H    0.000000   0.000000   0.000000   0.000000   0.000000   0.000000
    20  H    0.000000   0.000000   0.000000   0.000000   0.000000   0.000000
    21  H    0.000000   0.000000   0.000000   0.000000   0.000000   0.000000
    22  H    0.000000   0.000000   0.000000   0.000000   0.000000   0.000000
    23  H    0.000000   0.000000   0.000000   0.000000   0.000000   0.000000
    24  H    0.000000   0.000000   0.000000   0.000000   0.000000   0.000000
    25  H    0.000000   0.000000   0.000000   0.000000   0.000000   0.000000
    26  H    0.000000   0.000000   0.000000   0.000000   0.000000   0.000000
    27  H    0.000000   0.000000   0.000000   0.000000   0.000000   0.000000
    28  H    0.000001   0.000000   0.000000   0.000000   0.000000   0.000000
    29  H    0.000981   0.000000   0.000000   0.000000   0.000000   0.000000
    30  H    0.001948   0.000983   0.000001   0.000000   0.000000   0.000000
    31  H    0.592620   0.001598   0.000980   0.000000   0.000000   0.000000
    32  H    0.001598   0.592711   0.001953   0.000985   0.000001   0.000000
    33  H    0.000980   0.001953   0.592496   0.001584   0.000975   0.000000
    34  H    0.000000   0.000985   0.001584   0.592809   0.001969   0.001016
    35  H    0.000000   0.000001   0.000975   0.001969   0.592362   0.001555
    36  H    0.000000   0.000000   0.000000   0.001016   0.001555   0.592528
    37  H    0.000000   0.000000   0.000000   0.000001   0.000954   0.002004
    38  H    0.000000   0.000000   0.000000  -0.000001   0.000001  -0.004627
              37         38
     1  C    0.000000   0.000000
     2  C    0.000000   0.000000
     3  C    0.000000   0.000000
     4  C    0.000000   0.000000
     5  C    0.000000   0.000000
     6  C    0.000000   0.000000
     7  C    0.000000   0.000000
     8  C    0.000000   0.000000
     9  C    0.000000   0.000000
    10  C    0.000000   0.000000
    11  C    0.000000   0.000000
    12  C    0.000000   0.000000
    13  C    0.000000   0.000000
    14  C   -0.000001   0.000000
    15  C    0.000025  -0.000019
    16  C   -0.004209   0.001413
    17  C   -0.024405  -0.023830
    18  C    0.386160   0.388068
    19  H    0.000000   0.000000
    20  H    0.000000   0.000000
    21  H    0.000000   0.000000
    22  H    0.000000   0.000000
    23  H    0.000000   0.000000
    24  H    0.000000   0.000000
    25  H    0.000000   0.000000
    26  H    0.000000   0.000000
    27  H    0.000000   0.000000
    28  H    0.000000   0.000000
    29  H    0.000000   0.000000
    30  H    0.000000   0.000000
    31  H    0.000000   0.000000
    32  H    0.000000   0.000000
    33  H    0.000000   0.000000
    34  H    0.000001  -0.000001
    35  H    0.000954   0.000001
    36  H    0.002004  -0.004627
    37  H    0.586617  -0.023565
    38  H   -0.023565   0.584126
 Mulliken charges:
               1
     1  C   -0.153305
     2  C   -0.078257
     3  C   -0.075307
     4  C   -0.077805
     5  C   -0.076130
     6  C   -0.077074
     7  C   -0.076445
     8  C   -0.076803
     9  C   -0.076628
    10  C   -0.076628
    11  C   -0.076803
    12  C   -0.076445
    13  C   -0.077074
    14  C   -0.076130
    15  C   -0.077805
    16  C   -0.075307
    17  C   -0.078257
    18  C   -0.153305
    19  H    0.078435
    20  H    0.076418
    21  H    0.077556
    22  H    0.076396
    23  H    0.076495
    24  H    0.076523
    25  H    0.076492
    26  H    0.076486
    27  H    0.076477
    28  H    0.076476
    29  H    0.076476
    30  H    0.076477
    31  H    0.076486
    32  H    0.076492
    33  H    0.076523
    34  H    0.076495
    35  H    0.076396
    36  H    0.077556
    37  H    0.076418
    38  H    0.078435
 Sum of Mulliken charges =   0.00000
 Mulliken charges with hydrogens summed into heavy atoms:
               1
     1  C    0.001549
     2  C   -0.000701
     3  C    0.001089
     4  C   -0.001310
     5  C    0.000393
     6  C   -0.000582
     7  C    0.000042
     8  C   -0.000327
     9  C   -0.000152
    10  C   -0.000152
    11  C   -0.000327
    12  C    0.000042
    13  C   -0.000582
    14  C    0.000393
    15  C   -0.001310
    16  C    0.001089
    17  C   -0.000701
    18  C    0.001549
 Electronic spatial extent (au):  <R**2>=          20255.7203
 Charge=              0.0000 electrons
 Dipole moment (field-independent basis, Debye):
    X=              0.0000    Y=              0.0000    Z=              0.0000  Tot=              0.0000
 Quadrupole moment (field-independent basis, Debye-Ang):
   XX=            -92.4193   YY=            -91.6683   ZZ=           -107.2869
   XY=              0.2431   XZ=              0.0000   YZ=              0.0000
 Traceless Quadrupole moment (field-independent basis, Debye-Ang):
   XX=              4.7056   YY=              5.4565   ZZ=            -10.1621
   XY=              0.2431   XZ=              0.0000   YZ=              0.0000
 Octapole moment (field-independent basis, Debye-Ang**2):
  XXX=             -0.0003  YYY=              0.0000  ZZZ=              0.0000  XYY=              0.0000
  XXY=              0.0000  XXZ=              0.0014  XZZ=              0.0000  YZZ=              0.0000
  YYZ=              0.0000  XYZ=              0.0001
 Hexadecapole moment (field-independent basis, Debye-Ang**3):
 XXXX=         -24282.8474 YYYY=           -265.7693 ZZZZ=            -87.0742 XXXY=            -10.0541
 XXXZ=             -0.0010 YYYX=              6.1019 YYYZ=              0.0000 ZZZX=              0.0000
 ZZZY=              0.0000 XXYY=          -4061.6465 XXZZ=          -4695.6695 YYZZ=            -67.9436
 XXYZ=              0.0000 YYXZ=              0.0000 ZZXY=              0.3800
 N-N= 9.263551500450D+02 E-N=-3.447496598219D+03  KE= 6.778562770543D+02
 Calling FoFJK, ICntrl=      2127 FMM=F ISym2X=0 I1Cent= 0 IOpClX= 0 NMat=1 NMatS=1 NMatT=0.
 ***** Axes restored to original set *****
 -------------------------------------------------------------------
 Center     Atomic                   Forces (Hartrees/Bohr)
 Number     Number              X              Y              Z
 -------------------------------------------------------------------
      1        6           0.000000402    0.000001105   -0.000000806
      2        6          -0.000000609    0.000000060    0.000000268
      3        6          -0.000000282    0.000000290   -0.000000471
      4        6          -0.000000394   -0.000000113    0.000000047
      5        6          -0.000000290    0.000000237   -0.000000099
      6        6          -0.000000270    0.000000026    0.000000055
      7        6           0.000000028    0.000000150   -0.000000136
      8        6          -0.000000323   -0.000000104    0.000000129
      9        6           0.000000281    0.000000251   -0.000000137
     10        6          -0.000000276   -0.000000148    0.000000240
     11        6           0.000000322    0.000000156   -0.000000098
     12        6          -0.000000024   -0.000000143    0.000000154
     13        6           0.000000271    0.000000076    0.000000050
     14        6           0.000000265   -0.000000066    0.000000268
     15        6           0.000000415    0.000000071   -0.000000105
     16        6           0.000000277   -0.000000490    0.000000318
     17        6           0.000000604    0.000000337    0.000000123
     18        6          -0.000000411   -0.000000775    0.000001128
     19        1          -0.000000304    0.000000102   -0.000000268
     20        1          -0.000000735    0.000000176   -0.000000377
     21        1          -0.000000002    0.000000098   -0.000000274
     22        1          -0.000000425    0.000000333   -0.000000390
     23        1           0.000000103    0.000000068   -0.000000095
     24        1          -0.000000414    0.000000318   -0.000000405
     25        1           0.000000165   -0.000000077    0.000000026
     26        1          -0.000000390    0.000000261   -0.000000344
     27        1           0.000000250   -0.000000134    0.000000086
     28        1          -0.000000326    0.000000146   -0.000000240
     29        1           0.000000326   -0.000000220    0.000000167
     30        1          -0.000000251    0.000000069   -0.000000149
     31        1           0.000000391   -0.000000322    0.000000287
     32        1          -0.000000171    0.000000014   -0.000000094
     33        1           0.000000419   -0.000000384    0.000000343
     34        1          -0.000000105   -0.000000105    0.000000063
     35        1           0.000000418   -0.000000355    0.000000346
     36        1           0.000000007   -0.000000292    0.000000086
     37        1           0.000000745   -0.000000347    0.000000199
     38        1           0.000000313   -0.000000268    0.000000109
 -------------------------------------------------------------------
 Cartesian Forces:  Max     0.000001128 RMS     0.000000329

 GradGradGradGradGradGradGradGradGradGradGradGradGradGradGradGradGradGrad
 Berny optimization.
 FormGI is forming the generalized inverse of G from B-inverse, IUseBI=4.
 GSVD:  received Info=                   1 from GESDD.
 Internal  Forces:  Max     0.000000826 RMS     0.000000203
 Search for a local minimum.
 Step number   1 out of a maximum of  169
 All quantities printed in internal units (Hartrees-Bohrs-Radians)
 Mixed Optimization -- En-DIIS/RFO-DIIS
 Second derivative matrix not updated -- first step.
 ITU=  0
     Eigenvalues ---    0.01085   0.01085   0.01236   0.01236   0.01285
     Eigenvalues ---    0.01285   0.01302   0.01302   0.01835   0.01835
     Eigenvalues ---    0.01876   0.01876   0.01887   0.01887   0.01893
     Eigenvalues ---    0.01893   0.01896   0.01896   0.01899   0.01899
     Eigenvalues ---    0.01906   0.01906   0.01954   0.01954   0.02460
     Eigenvalues ---    0.02466   0.02466   0.02488   0.02488   0.02547
     Eigenvalues ---    0.02547   0.02766   0.02766   0.02766   0.02766
     Eigenvalues ---    0.16000   0.16000   0.16000   0.16000   0.16000
     Eigenvalues ---    0.16000   0.16000   0.16000   0.16000   0.16000
     Eigenvalues ---    0.16000   0.16000   0.16000   0.16000   0.16000
     Eigenvalues ---    0.16000   0.16000   0.16000   0.16000   0.16000
     Eigenvalues ---    0.22000   0.22000   0.22000   0.22000   0.22000
     Eigenvalues ---    0.22000   0.22000   0.22000   0.22000   0.22000
     Eigenvalues ---    0.22000   0.22000   0.22000   0.22000   0.22000
     Eigenvalues ---    0.22000   0.33638   0.33638   0.33652   0.33652
     Eigenvalues ---    0.33660   0.33660   0.33661   0.33661   0.33662
     Eigenvalues ---    0.33662   0.33663   0.33663   0.33665   0.33665
     Eigenvalues ---    0.33669   0.33669   0.34033   0.34033   0.34105
     Eigenvalues ---    0.34105   0.35046   0.35046   0.36407   0.36407
     Eigenvalues ---    0.36866   0.36866   0.37032   0.37032   0.50607
     Eigenvalues ---    0.50694   0.50694   0.51019   0.51019   0.51884
     Eigenvalues ---    0.51884   0.55281   0.55281
 RFO step:  Lambda= 0.00000000D+00 EMin= 1.08504743D-02
 Linear search not attempted -- first point.
 Iteration  1 RMS(Cart)=  0.00001426 RMS(Int)=  0.00000000
 Iteration  2 RMS(Cart)=  0.00000000 RMS(Int)=  0.00000000
 Variable       Old X    -DE/DX   Delta X   Delta X   Delta X     New X
                                 (Linear)    (Quad)   (Total)
    R1        2.54884   0.00000   0.00000   0.00000   0.00000   2.54883
    R2        2.07153   0.00000   0.00000   0.00000   0.00000   2.07153
    R3        2.07274   0.00000   0.00000   0.00000   0.00000   2.07274
    R4        2.78900   0.00000   0.00000   0.00000   0.00000   2.78900
    R5        2.07945   0.00000   0.00000   0.00000   0.00000   2.07945
    R6        2.58010   0.00000   0.00000   0.00000   0.00000   2.58010
    R7        2.07893   0.00000   0.00000   0.00000   0.00000   2.07892
    R8        2.76750   0.00000   0.00000   0.00000   0.00000   2.76750
    R9        2.07922   0.00000   0.00000   0.00000   0.00000   2.07922
   R10        2.58851   0.00000   0.00000   0.00000   0.00000   2.58851
   R11        2.07900   0.00000   0.00000   0.00000   0.00000   2.07900
   R12        2.76049   0.00000   0.00000   0.00000   0.00000   2.76049
   R13        2.07908   0.00000   0.00000   0.00000   0.00000   2.07908
   R14        2.59171   0.00000   0.00000   0.00000   0.00000   2.59171
   R15        2.07903   0.00000   0.00000   0.00000   0.00000   2.07903
   R16        2.75799   0.00000   0.00000   0.00000   0.00000   2.75799
   R17        2.07906   0.00000   0.00000   0.00000   0.00000   2.07905
   R18        2.59258   0.00000   0.00000   0.00000   0.00000   2.59258
   R19        2.07904   0.00000   0.00000   0.00000   0.00000   2.07904
   R20        2.75799   0.00000   0.00000   0.00000   0.00000   2.75799
   R21        2.07904   0.00000   0.00000   0.00000   0.00000   2.07904
   R22        2.59171   0.00000   0.00000   0.00000   0.00000   2.59171
   R23        2.07906   0.00000   0.00000   0.00000   0.00000   2.07905
   R24        2.76049   0.00000   0.00000   0.00000   0.00000   2.76049
   R25        2.07903   0.00000   0.00000   0.00000   0.00000   2.07903
   R26        2.58851   0.00000   0.00000   0.00000   0.00000   2.58851
   R27        2.07908   0.00000   0.00000   0.00000   0.00000   2.07908
   R28        2.76750   0.00000   0.00000   0.00000   0.00000   2.76750
   R29        2.07900   0.00000   0.00000   0.00000   0.00000   2.07900
   R30        2.58010   0.00000   0.00000   0.00000   0.00000   2.58010
   R31        2.07922   0.00000   0.00000   0.00000   0.00000   2.07922
   R32        2.78900   0.00000   0.00000   0.00000   0.00000   2.78900
   R33        2.07893   0.00000   0.00000   0.00000   0.00000   2.07893
   R34        2.54884   0.00000   0.00000   0.00000   0.00000   2.54883
   R35        2.07945   0.00000   0.00000   0.00000   0.00000   2.07945
   R36        2.07274   0.00000   0.00000   0.00000   0.00000   2.07274
   R37        2.07153   0.00000   0.00000   0.00000   0.00000   2.07153
    A1        2.12630   0.00000   0.00000   0.00000   0.00000   2.12630
    A2        2.12353   0.00000   0.00000   0.00000   0.00000   2.12353
    A3        2.03336   0.00000   0.00000   0.00000   0.00000   2.03336
    A4        2.16524   0.00000   0.00000   0.00000   0.00000   2.16524
    A5        2.09030   0.00000   0.00000   0.00000   0.00000   2.09030
    A6        2.02764   0.00000   0.00000   0.00000   0.00000   2.02764
    A7        2.16040   0.00000   0.00000   0.00000   0.00000   2.16040
    A8        2.03788   0.00000   0.00000   0.00000   0.00000   2.03788
    A9        2.08491   0.00000   0.00000   0.00000   0.00000   2.08491
   A10        2.16400   0.00000   0.00000   0.00000   0.00000   2.16400
   A11        2.08077   0.00000   0.00000   0.00000   0.00000   2.08077
   A12        2.03841   0.00000   0.00000   0.00000   0.00000   2.03841
   A13        2.16216   0.00000   0.00000   0.00000   0.00000   2.16216
   A14        2.04034   0.00000   0.00000   0.00000   0.00000   2.04034
   A15        2.08069   0.00000   0.00000   0.00000   0.00000   2.08069
   A16        2.16342   0.00000   0.00000   0.00000   0.00000   2.16342
   A17        2.07932   0.00000   0.00000   0.00000   0.00000   2.07932
   A18        2.04044   0.00000   0.00000   0.00000   0.00000   2.04044
   A19        2.16275   0.00000   0.00000   0.00000   0.00000   2.16275
   A20        2.04118   0.00000   0.00000   0.00000   0.00000   2.04118
   A21        2.07926   0.00000   0.00000   0.00000   0.00000   2.07926
   A22        2.16325   0.00000   0.00000   0.00000   0.00000   2.16325
   A23        2.07874   0.00000   0.00000   0.00000   0.00000   2.07874
   A24        2.04120   0.00000   0.00000   0.00000   0.00000   2.04119
   A25        2.16305   0.00000   0.00000   0.00000   0.00000   2.16305
   A26        2.04140   0.00000   0.00000   0.00000   0.00000   2.04140
   A27        2.07873   0.00000   0.00000   0.00000   0.00000   2.07873
   A28        2.16305   0.00000   0.00000   0.00000   0.00000   2.16305
   A29        2.07873   0.00000   0.00000   0.00000   0.00000   2.07873
   A30        2.04140   0.00000   0.00000   0.00000   0.00000   2.04140
   A31        2.16325   0.00000   0.00000   0.00000   0.00000   2.16325
   A32        2.04120   0.00000   0.00000   0.00000   0.00000   2.04119
   A33        2.07874   0.00000   0.00000   0.00000   0.00000   2.07874
   A34        2.16275   0.00000   0.00000   0.00000   0.00000   2.16275
   A35        2.07926   0.00000   0.00000   0.00000   0.00000   2.07926
   A36        2.04118   0.00000   0.00000   0.00000   0.00000   2.04118
   A37        2.16342   0.00000   0.00000   0.00000   0.00000   2.16342
   A38        2.04044   0.00000   0.00000   0.00000   0.00000   2.04044
   A39        2.07932   0.00000   0.00000   0.00000   0.00000   2.07932
   A40        2.16216   0.00000   0.00000   0.00000   0.00000   2.16216
   A41        2.08069   0.00000   0.00000   0.00000   0.00000   2.08069
   A42        2.04034   0.00000   0.00000   0.00000   0.00000   2.04034
   A43        2.16400   0.00000   0.00000   0.00000   0.00000   2.16400
   A44        2.03841   0.00000   0.00000   0.00000   0.00000   2.03841
   A45        2.08077   0.00000   0.00000   0.00000   0.00000   2.08077
   A46        2.16040   0.00000   0.00000   0.00000   0.00000   2.16040
   A47        2.08490   0.00000   0.00000   0.00000   0.00000   2.08491
   A48        2.03788   0.00000   0.00000   0.00000   0.00000   2.03788
   A49        2.16524   0.00000   0.00000   0.00000   0.00000   2.16524
   A50        2.02764   0.00000   0.00000   0.00000   0.00000   2.02764
   A51        2.09030   0.00000   0.00000   0.00000   0.00000   2.09030
   A52        2.12353   0.00000   0.00000   0.00000   0.00000   2.12353
   A53        2.12630   0.00000   0.00000   0.00000   0.00000   2.12630
   A54        2.03336   0.00000   0.00000   0.00000   0.00000   2.03336
    D1        3.14159   0.00000   0.00000   0.00001   0.00001  -3.14159
    D2        0.00000   0.00000   0.00000   0.00000   0.00000   0.00000
    D3        0.00000   0.00000   0.00000   0.00000   0.00000   0.00000
    D4       -3.14159   0.00000   0.00000  -0.00001  -0.00001   3.14159
    D5       -3.14159   0.00000   0.00000   0.00000   0.00000   3.14159
    D6        0.00000   0.00000   0.00000   0.00000   0.00000   0.00000
    D7        0.00000   0.00000   0.00000   0.00000   0.00000   0.00000
    D8        3.14159   0.00000   0.00000   0.00000   0.00000  -3.14159
    D9       -3.14159   0.00000   0.00000   0.00000   0.00000   3.14159
   D10        0.00000   0.00000   0.00000   0.00000   0.00000   0.00000
   D11        0.00000   0.00000   0.00000   0.00000   0.00000   0.00000
   D12       -3.14159   0.00000   0.00000   0.00000   0.00000   3.14159
   D13       -3.14159   0.00000   0.00000   0.00000   0.00000   3.14159
   D14        0.00000   0.00000   0.00000   0.00000   0.00000   0.00000
   D15        0.00000   0.00000   0.00000   0.00000   0.00000   0.00000
   D16        3.14159   0.00000   0.00000   0.00000   0.00000  -3.14159
   D17        3.14159   0.00000   0.00000   0.00000   0.00000  -3.14159
   D18        0.00000   0.00000   0.00000   0.00000   0.00000   0.00000
   D19        0.00000   0.00000   0.00000   0.00000   0.00000   0.00000
   D20       -3.14159   0.00000   0.00000   0.00000   0.00000   3.14159
   D21       -3.14159   0.00000   0.00000   0.00000   0.00000   3.14159
   D22        0.00000   0.00000   0.00000   0.00000   0.00000   0.00000
   D23        0.00000   0.00000   0.00000   0.00000   0.00000   0.00000
   D24        3.14159   0.00000   0.00000   0.00000   0.00000  -3.14159
   D25        3.14159   0.00000   0.00000   0.00000   0.00000   3.14159
   D26        0.00000   0.00000   0.00000   0.00000   0.00000   0.00000
   D27        0.00000   0.00000   0.00000   0.00000   0.00000   0.00000
   D28       -3.14159   0.00000   0.00000   0.00000   0.00000   3.14159
   D29       -3.14159   0.00000   0.00000   0.00000   0.00000   3.14159
   D30        0.00000   0.00000   0.00000   0.00000   0.00000   0.00000
   D31        0.00000   0.00000   0.00000   0.00000   0.00000   0.00000
   D32        3.14159   0.00000   0.00000   0.00000   0.00000  -3.14159
   D33        3.14159   0.00000   0.00000   0.00000   0.00000  -3.14159
   D34        0.00000   0.00000   0.00000   0.00000   0.00000   0.00000
   D35        0.00000   0.00000   0.00000   0.00000   0.00000   0.00000
   D36       -3.14159   0.00000   0.00000   0.00000   0.00000   3.14159
   D37       -3.14159   0.00000   0.00000   0.00000   0.00000   3.14159
   D38        0.00000   0.00000   0.00000   0.00000   0.00000   0.00000
   D39        0.00000   0.00000   0.00000   0.00000   0.00000   0.00000
   D40        3.14159   0.00000   0.00000   0.00000   0.00000  -3.14159
   D41        3.14159   0.00000   0.00000   0.00000   0.00000   3.14159
   D42        0.00000   0.00000   0.00000   0.00000   0.00000   0.00000
   D43        0.00000   0.00000   0.00000   0.00000   0.00000   0.00000
   D44       -3.14159   0.00000   0.00000   0.00000   0.00000   3.14159
   D45       -3.14159   0.00000   0.00000   0.00000   0.00000   3.14159
   D46        0.00000   0.00000   0.00000   0.00000   0.00000   0.00000
   D47        0.00000   0.00000   0.00000   0.00000   0.00000   0.00000
   D48        3.14159   0.00000   0.00000   0.00000   0.00000  -3.14159
   D49        3.14159   0.00000   0.00000   0.00000   0.00000  -3.14159
   D50        0.00000   0.00000   0.00000   0.00000   0.00000   0.00000
   D51        0.00000   0.00000   0.00000   0.00000   0.00000   0.00000
   D52       -3.14159   0.00000   0.00000   0.00000   0.00000   3.14159
[...]
 ! D61   D(15,16,17,18)        180.0001         -DE/DX =    0.0                 !
 ! D62   D(15,16,17,36)         -0.0001         -DE/DX =    0.0                 !
 ! D63   D(35,16,17,18)          0.0001         -DE/DX =    0.0                 !
 ! D64   D(35,16,17,36)       -180.0001         -DE/DX =    0.0                 !
 ! D65   D(16,17,18,37)          0.0            -DE/DX =    0.0                 !
 ! D66   D(16,17,18,38)       -180.0002         -DE/DX =    0.0                 !
 ! D67   D(36,17,18,37)        180.0003         -DE/DX =    0.0                 !
 ! D68   D(36,17,18,38)          0.0            -DE/DX =    0.0                 !
 --------------------------------------------------------------------------------
 GradGradGradGradGradGradGradGradGradGradGradGradGradGradGradGradGradGrad

                          Input orientation:                          
 ---------------------------------------------------------------------
 Center     Atomic      Atomic             Coordinates (Angstroms)
 Number     Number       Type             X           Y           Z
 ---------------------------------------------------------------------
      1          6           0        1.098642   -0.496536   -0.197217
      2          6           0        1.666951    0.375893   -1.054605
      3          6           0        3.123179    0.578158   -1.183843
      4          6           0        3.692459    1.463078   -2.053880
      5          6           0        5.136615    1.667411   -2.185858
      6          6           0        5.705462    2.555892   -3.059537
      7          6           0        7.145661    2.760977   -3.192483
      8          6           0        7.714375    3.650803   -4.067534
      9          6           0        9.153148    3.856198   -4.200869
     10          6           0        9.721811    4.746395   -5.076298
     11          6           0       11.160583    4.951792   -5.209632
     12          6           0       11.729296    5.841621   -6.084680
     13          6           0       13.169494    6.046711   -6.217625
     14          6           0       13.738339    6.935198   -7.091299
     15          6           0       15.182494    7.139540   -7.223272
     16          6           0       15.751770    8.024470   -8.093303
     17          6           0       17.207997    8.226742   -8.222539
     18          6           0       17.776303    9.099183   -9.079918
     19          1           0        0.011087   -0.617282   -0.131518
     20          1           0        1.701914   -1.122784    0.471326
     21          1           0        1.031559    0.988916   -1.711380
     22          1           0        3.767567   -0.029872   -0.531670
     23          1           0        3.044305    2.069224   -2.704333
     24          1           0        5.786408    1.062251   -1.536320
     25          1           0        5.054431    3.160423   -3.708497
     26          1           0        7.797324    2.156815   -2.543864
     27          1           0        7.062249    4.254727   -4.715935
     28          1           0        9.805451    3.252377   -3.552564
     29          1           0        9.069507    5.350217   -5.724603
     30          1           0       11.812710    4.347868   -4.561232
     31          1           0       11.077632    6.445784   -6.733298
     32          1           0       13.820527    5.442180   -5.568665
     33          1           0       13.088544    7.540360   -7.740833
     34          1           0       15.830650    6.533394   -6.572822
     35          1           0       15.107380    8.632501   -8.745471
     36          1           0       17.843392    7.613720   -7.565765
     37          1           0       17.173027    9.725435   -9.748454
     38          1           0       18.863857    9.219939   -9.145610
 ---------------------------------------------------------------------
                    Distance matrix (angstroms):
                    1          2          3          4          5
     1  C    0.000000
     2  C    1.348786   0.000000
     3  C    2.495426   1.475877   0.000000
     4  C    3.743684   2.506632   1.365331   0.000000
     5  C    4.994256   3.871217   2.498886   1.464499   0.000000
     6  C    6.223583   5.008165   3.754710   2.501553   1.369781
     7  C    7.493294   6.346291   4.997969   3.860772   2.499089
     8  C    8.714798   7.508270   6.231846   5.001675   3.757579
     9  C    9.992527   8.834854   7.497234   6.336853   4.998359
    10  C   11.209496  10.007800   8.721660   7.501218   6.233683
    11  C   12.492047  11.328378   9.996775   8.826255   7.497904
    12  C   13.705666  12.507063  11.215503  10.000487   8.722860
    13  C   14.992161  13.824741  12.496899  11.320807   9.998028
    14  C   16.202500  15.006151  13.711004  12.499576  11.216175
    15  C   17.493714  16.323887  14.998451  13.819036  12.499577
    16  C   18.699462  17.505031  16.207082  14.998449  13.711004
    17  C   20.000318  18.829212  17.505033  16.323887  15.006152
    18  C   21.192560  20.000316  18.699463  17.493712  16.202500
    19  H    1.096208   2.140181   3.495938   4.644984   5.975883
    20  H    1.096847   2.139093   2.766366   4.126211   5.161684
    21  H    2.122206   1.100397   2.195881   2.724431   4.187716
    22  H    2.729981   2.202428   1.100120   2.133463   2.737042
    23  H    4.080976   2.736069   2.131054   1.100275   2.192722
    24  H    5.118415   4.203934   2.729720   2.193890   1.100158
    25  H    6.430452   5.125600   4.095328   2.733809   2.134074
    26  H    7.577557   6.555230   5.117562   4.191810   2.728929
    27  H    8.863291   7.586826   6.442756   5.122043   4.099214
    28  H   10.055906   8.986053   7.577272   6.543418   5.116448
    29  H   11.325688  10.067304   8.874112   7.582658   6.446194
    30  H   12.542095  11.445935  10.056113   8.974815   7.576113
    31  H   13.802044  12.555957  11.335732  10.063056   8.877373
    32  H   15.032204  13.919533  12.542672  11.435240  10.054978
    33  H   16.286670  15.049519  13.812128  12.552339  11.339420
    34  H   17.524278  16.400485  15.032822  13.909156  12.541357
    35  H   18.779157  17.548964  16.299440  15.049201  13.818726
    36  H   20.011457  18.880110  17.518925  16.384754  15.025451
    37  H   21.309639  20.085700  18.826138  17.584048  16.340130
    38  H   22.137898  20.962230  19.642787  18.456242  17.143979
                    6          7          8          9         10
     6  C    0.000000
     7  C    1.460790   0.000000
     8  C    2.500124   1.371474   0.000000
     9  C    3.857457   2.499271   1.459463   0.000000
    10  C    4.999669   3.758616   2.499545   1.371935   0.000000
    11  C    6.334161   4.998816   3.856593   2.499545   1.459463
    12  C    7.498939   6.234171   4.998815   3.758616   2.499271
    13  C    8.824462   7.498940   6.334161   4.999669   3.857457
    14  C    9.998027   8.722860   7.497903   6.233683   4.998359
    15  C   11.320807  10.000488   8.826255   7.501218   6.336853
    16  C   12.496898  11.215503   9.996774   8.721660   7.497233
    17  C   13.824740  12.507064  11.328378  10.007801   8.834853
    18  C   14.992159  13.705666  12.492046  11.209496   9.992526
    19  H    7.146204   8.466657   9.646213  10.961246  12.145700
    20  H    6.482904   7.625056   8.918412  10.106461  11.381658
    21  H    5.110607   6.535756   7.569487   8.965437  10.047974
    22  H    4.102648   5.126430   6.451899   7.587427   8.883659
    23  H    2.728511   4.187831   5.115590   6.538414   7.575127
    24  H    2.134878   2.734248   4.101792   5.122587   6.449167
    25  H    1.100204   2.190678   2.728494   4.186408   5.115722
    26  H    2.191134   1.100174   2.135521   2.733464   4.101560
    27  H    2.733234   2.135217   1.100189   2.189972   2.728528
    28  H    4.187849   2.728666   2.190100   1.100182   2.135615
    29  H    5.121291   4.100851   2.733179   2.135615   1.100182
    30  H    6.539476   5.115960   4.186405   2.728529   2.189972
    31  H    7.582084   6.447912   5.121495   4.101560   2.733464
    32  H    8.971101   7.575548   6.538158   5.115724   4.186408
    33  H   10.063268   8.879631   7.583104   6.449166   5.122585
    34  H   11.431672  10.054196   8.969934   7.575129   6.538415
    35  H   12.555919  11.344578  10.067618   8.883658   7.587425
    36  H   13.900254  12.534598  11.425380  10.047977   8.965438
    37  H   15.088042  13.857579  12.595241  11.381657  10.106459
    38  H   15.955976  14.644932  13.457826  12.145701  10.961246
                   11         12         13         14         15
    11  C    0.000000
    12  C    1.371474   0.000000
    13  C    2.500125   1.460790   0.000000
    14  C    3.757579   2.499089   1.369781   0.000000
    15  C    5.001676   3.860772   2.501554   1.464499   0.000000
    16  C    6.231846   4.997969   3.754710   2.498886   1.365331
    17  C    7.508270   6.346291   5.008165   3.871216   2.506632
    18  C    8.714798   7.493293   6.223583   4.994255   3.743684
    19  H   13.457826  14.644931  15.955977  17.143977  18.456242
    20  H   12.595244  13.857581  15.088046  16.340132  17.584052
    21  H   11.425379  12.534595  13.900252  15.025447  16.384752
    22  H   10.067621  11.344580  12.555923  13.818728  15.049205
    23  H    8.969933  10.054193  11.431670  12.541353  13.909154
    24  H    7.583106   8.879633  10.063271  11.339422  12.552342
    25  H    6.538157   7.575545   8.971100  10.054975  11.435238
    26  H    5.121497   6.447913   7.582086   8.877374  10.063059
    27  H    4.186404   5.115958   6.539475   7.576111   8.974813
    28  H    2.733179   4.100851   5.121293   6.446195   7.582660
    29  H    2.190100   2.728665   4.187848   5.116446   6.543417
    30  H    1.100189   2.135217   2.733234   4.099215   5.122044
    31  H    2.135521   1.100174   2.191134   2.728929   4.191809
    32  H    2.728495   2.190678   1.100204   2.134074   2.733809
    33  H    4.101792   2.734248   2.134878   1.100158   2.193890
    34  H    5.115592   4.187832   2.728511   2.192722   1.100275
    35  H    6.451898   5.126429   4.102648   2.737042   2.133463
    36  H    7.569488   6.535756   5.110608   4.187716   2.724431
    37  H    8.918411   7.625054   6.482904   5.161684   4.126211
    38  H    9.646213   8.466657   7.146204   5.975882   4.644984
                   16         17         18         19         20
    16  C    0.000000
    17  C    1.475877   0.000000
    18  C    2.495426   1.348786   0.000000
    19  H   19.642785  20.962230  22.137896   0.000000
    20  H   18.826141  20.085705  21.309642   1.864900   0.000000
    21  H   17.518920  18.880107  20.011452   2.473297   3.110122
    22  H   16.299443  17.548969  18.779160   3.823129   2.543104
    23  H   15.032818  16.400482  17.524274   4.799698   4.698483
    24  H   13.812131  15.049523  16.286673   6.176458   5.048575
    25  H   12.542668  13.919530  15.032200   7.245769   6.859749
    26  H   11.335734  12.555960  13.802047   8.610488   7.549911
    27  H   10.056110  11.445933  12.542091   9.719683   9.195569
    28  H    8.874114  10.067306  11.325690  11.072822  10.049927
    29  H    7.577270   8.986051  10.055903  12.204450  11.600461
    30  H    6.442757   7.586828   8.863292  13.548188  12.549218
    31  H    5.117561   6.555229   7.577555  14.694857  14.039014
    32  H    4.095329   5.125601   6.430453  16.030604  15.047957
    33  H    2.729720   4.203933   5.118414  17.189203  16.496817
    34  H    2.131054   2.736070   4.080976  18.517050  17.545890
    35  H    1.100120   2.202428   2.729980  19.689001  18.968961
    36  H    2.195881   1.100397   2.122206  21.000203  20.036682
    37  H    2.766366   2.139093   1.096847  22.225874  21.482158
    38  H    3.495938   2.140181   1.096208  23.096574  22.225878
                   21         22         23         24         25
    21  H    0.000000
    22  H    3.148870   0.000000
    23  H    2.490816   3.106409   0.000000
    24  H    4.758635   2.505549   3.146009   0.000000
    25  H    4.988729   4.682546   2.497933   3.107486   0.000000
    26  H    6.916111   5.006942   4.756533   2.501399   3.144370
    27  H    7.487462   6.835261   4.996683   4.682907   2.498752
    28  H    9.246318   7.506997   6.916101   5.001460   4.754468
    29  H    9.986766   9.166377   7.495999   6.834259   4.998070
    30  H   11.646348  10.006313   9.247984   7.500779   6.914587
    31  H   12.486819  11.568551   9.996058   9.164500   7.498131
    32  H   14.080763  12.505066  11.649386   9.999532   9.247219
    33  H   14.988216  14.005751  12.497456  11.566463   9.999527
    34  H   16.534447  15.002998  14.084908  12.497462  11.649385
    35  H   17.493758  16.464951  15.002991  14.005751  12.505060
    36  H   18.994725  17.493766  16.534447  14.988222  14.080763
    37  H   20.036674  18.968961  17.545883  16.496818  15.047951
    38  H   21.000199  19.689006  18.517046  17.189207  16.030601
                   26         27         28         29         30
    26  H    0.000000
    27  H    3.107967   0.000000
    28  H    2.500062   3.143771   0.000000
    29  H    4.683307   2.499318   3.108103   0.000000
    30  H    4.999381   4.753892   2.499320   3.143771   0.000000
    31  H    6.834255   4.999379   4.683307   2.500060   3.107967
    32  H    7.498134   6.914587   4.998073   4.754468   2.498753
    33  H    9.164500   7.500775   6.834259   5.001457   4.682907
    34  H    9.996063   9.247984   7.496002   6.916100   4.996685
    35  H   11.568551  10.006309   9.166378   7.506994   6.835261
    36  H   12.486825  11.646347   9.986770   9.246317   7.487465
    37  H   14.039015  12.549213  11.600462  10.049923   9.195570
    38  H   14.694861  13.548185  12.204453  11.072820   9.719685
                   31         32         33         34         35
    31  H    0.000000
    32  H    3.144370   0.000000
    33  H    2.501398   3.107486   0.000000
    34  H    4.756533   2.497934   3.146009   0.000000
    35  H    5.006940   4.682546   2.505548   3.106409   0.000000
    36  H    6.916110   4.988731   4.758635   2.490817   3.148870
    37  H    7.549909   6.859750   5.048574   4.698483   2.543103
    38  H    8.610487   7.245770   6.176457   4.799699   3.823128
                   36         37         38
    36  H    0.000000
    37  H    3.110122   0.000000
    38  H    2.473298   1.864900   0.000000
 Stoichiometry    C18H20
 Framework group  C1[X(C18H20)]
 Deg. of freedom   108
 Full point group                 C1      NOp   1
 Largest Abelian subgroup         C1      NOp   1
 Largest concise Abelian subgroup C1      NOp   1
                         Standard orientation:                         
 ---------------------------------------------------------------------
 Center     Atomic      Atomic             Coordinates (Angstroms)
 Number     Number       Type             X           Y           Z
 ---------------------------------------------------------------------
      1          6           0       10.593326    0.250173    0.000018
      2          6           0        9.406497   -0.390654    0.000011
      3          6           0        8.098260    0.292521    0.000007
      4          6           0        6.900029   -0.361979    0.000002
      5          6           0        5.599444    0.311248   -0.000002
      6          6           0        4.398517   -0.347595   -0.000007
      7          6           0        3.100380    0.322290   -0.000009
      8          6           0        1.898411   -0.338173   -0.000011
      9          6           0        0.601122    0.330463   -0.000012
     10          6           0       -0.601122   -0.330456   -0.000013
     11          6           0       -1.898411    0.338180   -0.000012
     12          6           0       -3.100379   -0.322285   -0.000010
     13          6           0       -4.398518    0.347599   -0.000007
     14          6           0       -5.599444   -0.311247   -0.000003
     15          6           0       -6.900030    0.361978    0.000002
     16          6           0       -8.098259   -0.292525    0.000007
     17          6           0       -9.406498    0.390647    0.000011
     18          6           0      -10.593326   -0.250183    0.000019
     19          1           0       11.544526   -0.294705    0.000023
     20          1           0       10.656512    1.345198    0.000022
     21          1           0        9.379638   -1.490724    0.000010
     22          1           0        8.113848    1.392531    0.000009
     23          1           0        6.888985   -1.462199    0.000000
     24          1           0        5.608370    1.411370   -0.000001
     25          1           0        4.391093   -1.447774   -0.000007
     26          1           0        3.106996    1.422444   -0.000008
     27          1           0        1.892359   -1.438345   -0.000011
     28          1           0        0.606948    1.430629   -0.000012
     29          1           0       -0.606948   -1.430622   -0.000012
     30          1           0       -1.892360    1.438352   -0.000012
     31          1           0       -3.106994   -1.422439   -0.000008
     32          1           0       -4.391096    1.447778   -0.000008
     33          1           0       -5.608368   -1.411369   -0.000001
     34          1           0       -6.888988    1.462198    0.000000
     35          1           0       -8.113845   -1.392535    0.000009
     36          1           0       -9.379642    1.490716    0.000011
     37          1           0      -10.656508   -1.345209    0.000023
     38          1           0      -11.544526    0.294692    0.000025
 ---------------------------------------------------------------------
 Rotational constants (GHZ):      8.3426122      0.0499928      0.0496951
 1\1\GINC-MW\FOpt\RB3LYP\STO-3G\C18H20\BING\25-Feb-2019\0\\# opt(tight)
  b3lyp/sto-3g\\c18h20\\0,1\C,1.09864188,-0.49653642,-0.19721665\C,1.66
 695144,0.37589315,-1.0546045\C,3.12317936,0.57815756,-1.18384268\C,3.6
 9245885,1.46307787,-2.05388003\C,5.13661487,1.66741147,-2.18585754\C,5
 .70546181,2.55589226,-3.05953662\C,7.14566071,2.76097714,-3.19248325\C
 ,7.71437498,3.65080297,-4.06753443\C,9.1531477,3.85619773,-4.20086935\
 C,9.72181051,4.74639524,-5.07629805\C,11.16058305,4.95179196,-5.209631
 97\C,11.729296,5.84162136,-6.0846804\C,13.16949441,6.04671091,-6.21762
 517\C,13.73833888,6.93519847,-7.09129899\C,15.18249406,7.13954043,-7.2
 2327249\C,15.75177021,8.02446975,-8.09330289\C,17.20799724,8.2267417,-
 8.2225389\C,17.77630291,9.09918259,-9.07991781\H,0.01108706,-0.6172824
 7,-0.13151817\H,1.70191444,-1.12278404,0.47132641\H,1.03155928,0.98891
 602,-1.71137987\H,3.76756678,-0.02987242,-0.53167039\H,3.04430506,2.06
 922356,-2.7043332\H,5.78640785,1.06225148,-1.53632033\H,5.05443114,3.1
 6042346,-3.70849749\H,7.7973236,2.15681532,-2.54386371\H,7.06224887,4.
 25472709,-4.71593481\H,9.80545138,3.25237697,-3.55256352\H,9.0695066,5
 .35021702,-5.7246027\H,11.81270981,4.34786833,-4.56123179\H,11.0776320
 3,6.44578431,-6.73329781\H,13.82052652,5.44218,-5.56866546\H,13.088544
 07,7.54036004,-7.74083291\H,15.83064998,6.53339377,-6.57282235\H,15.10
 738044,8.63250131,-8.74547135\H,17.84339185,7.61371974,-7.56576505\H,1
 7.17302745,9.72543506,-9.7484537\H,18.86385692,9.21993931,-9.14561009\
 \Version=ES64L-G09RevD.01\State=1-A\HF=-689.2735925\RMSD=6.310e-09\RMS
 F=3.292e-07\Dipole=0.0000009,0.0000041,0.0000026\Quadrupole=3.5096367,
 -1.8599856,-1.6496511,0.1392014,0.4394097,-5.7844928\PG=C01 [X(C18H20)
 ]\\@


 MARY HAD A LITTLE LAMB
      HIS FEET WERE BLACK AS SOOT,
           AND EVERYWHERE THAT MARY WENT
                HIS SOOTY FOOT HE PUT.

                    -- NONAME
 Job cpu time:       0 days  0 hours  1 minutes 23.7 seconds.
 File lengths (MBytes):  RWF=      8 Int=      0 D2E=      0 Chk=      3 Scr=      1
 Normal termination of Gaussian 09 at Mon Feb 25 22:31:27 2019.
